       N       E                     dE             d eps       ncg     rms          rms(c)                                      
DAV:   1      .110929424064E+04     .11093E+04    -.62731E+04 16320    .996E+02                                                  
DAV:   2      .171176122732E+02    -.10922E+04    -.10362E+04 16904    .279E+02                                                  
DAV:   3     -.254068684661E+02    -.42524E+02    -.41965E+02 18120    .671E+01                                                  
DAV:   4     -.257852411893E+02    -.37837E+00    -.37779E+00 18032    .607E+00                                                  
DAV:   5     -.257897156255E+02    -.44744E-02    -.44743E-02 18160    .563E-01     .167E+01                                     
RMM:   6     -.242953266970E+02     .14944E+01    -.57407E+00 16320    .812E+00     .106E+01                                     
RMM:   7     -.333692003205E+02    -.90739E+01    -.13027E+01 16344    .721E+00     .998E+00                                     
RMM:   8     -.275723149519E+02     .57969E+01    -.93298E+00 16365    .560E+00     .579E+00                                     
RMM:   9     -.257364864443E+02     .18358E+01    -.36046E+00 16392    .340E+00     .437E+00                                     
RMM:  10     -.249517870192E+02     .78470E+00    -.81696E-01 16382    .200E+00     .131E+00                                     
RMM:  11     -.248554111706E+02     .96376E-01    -.17867E-01 16414    .956E-01     .286E-01                                     
RMM:  12     -.248522625529E+02     .31486E-02    -.73018E-03 16417    .227E-01     .143E-01                                     
RMM:  13     -.248536769478E+02    -.14144E-02    -.11082E-03 16419    .965E-02     .566E-02                                     
RMM:  14     -.248542259360E+02    -.54899E-03    -.75333E-05 10639    .255E-02     .272E-02                                     
RMM:  15     -.248545774385E+02    -.35150E-03    -.44731E-05 10109    .195E-02     .993E-03                                     
RMM:  16     -.248546055701E+02    -.28132E-04    -.92911E-06  9554    .940E-03                                                  
    1 T=  3056. E= -.19719992E+02 F= -.24854606E+02 E0= -.24774334E+02  EK=  .51346E+01 SP=  .00E+00 SK=  .00E+00 mag=       .999
       N       E                     dE             d eps       ncg     rms          rms(c)                                      
DAV:   1     -.243992927502E+02     .45528E+00    -.15510E-01 17032    .151E-01     .301E-01                                     
RMM:   2     -.245389112713E+02    -.13962E+00    -.99208E-04 10872    .349E-02     .217E-01                                     
RMM:   3     -.248327821200E+02    -.29387E+00    -.13534E-03 11585    .398E-02     .225E-02                                     
RMM:   4     -.248509723076E+02    -.18190E-01    -.24531E-05 10018    .104E-02     .126E-02                                     
RMM:   5     -.248545202054E+02    -.35479E-02    -.13251E-05  6741    .550E-03     .209E-03                                     
RMM:   6     -.248542403745E+02     .27983E-03    -.17221E-06  4371    .347E-03     .719E-04                                     
RMM:   7     -.248545768506E+02    -.33648E-03    -.35248E-06  3777    .342E-03     .252E-04                                     
RMM:   8     -.248546426014E+02    -.65751E-04    -.68590E-06  4090    .395E-03     .112E-04                                     
RMM:   9     -.248546542781E+02    -.11677E-04    -.26865E-07  2747    .265E-03                                                  
    2 T=  3056. E= -.19719993E+02 F= -.24854654E+02 E0= -.24774383E+02  EK=  .51347E+01 SP=  .00E+00 SK=  .00E+00 mag=      1.000
       N       E                     dE             d eps       ncg     rms          rms(c)                                      
DAV:   1     -.247926635024E+02     .61979E-01    -.11327E+00 13040    .459E+00     .418E-02                                     
RMM:   2     -.248172774388E+02    -.24614E-01    -.92427E-02 11806    .213E-01     .283E-02                                     
RMM:   3     -.248493395356E+02    -.32062E-01    -.25802E-03 10937    .333E-02     .144E-02                                     
RMM:   4     -.248538214339E+02    -.44819E-02    -.38969E-04 10025    .181E-02     .344E-03                                     
RMM:   5     -.248540616399E+02    -.24021E-03    -.18167E-05  5686    .546E-03     .209E-03                                     
RMM:   6     -.248544169829E+02    -.35534E-03    -.34681E-06  4566    .389E-03     .128E-03                                     
RMM:   7     -.248546363652E+02    -.21938E-03    -.54627E-06  4898    .437E-03     .479E-04                                     
RMM:   8     -.248546756143E+02    -.39249E-04    -.37945E-06  3976    .373E-03     .194E-04                                     
RMM:   9     -.248546884991E+02    -.12885E-04    -.50658E-07  2481    .267E-03                                                  
    3 T=  3056. E= -.19719976E+02 F= -.24854688E+02 E0= -.24774417E+02  EK=  .51347E+01 SP=  .00E+00 SK=  .00E+00 mag=      1.000
       N       E                     dE             d eps       ncg     rms          rms(c)                                      
DAV:   1     -.248458547675E+02     .88208E-02    -.19339E+00 14616    .964E+00     .951E-03                                     
RMM:   2     -.248505343343E+02    -.46796E-02    -.13632E-02 12293    .115E-01     .526E-03                                     
RMM:   3     -.248517881355E+02    -.12538E-02    -.35766E-04  9801    .199E-02     .319E-03                                     
RMM:   4     -.248540853546E+02    -.22972E-02    -.37907E-05  7354    .853E-03     .118E-03                                     
RMM:   5     -.248546843836E+02    -.59903E-03    -.66087E-06  6223    .545E-03     .435E-04                                     
RMM:   6     -.248547252977E+02    -.40914E-04    -.15108E-05  5264    .548E-03     .195E-04                                     
RMM:   7     -.248547419859E+02    -.16688E-04    -.55103E-07  2699    .258E-03                                                  
    4 T=  3056. E= -.19719975E+02 F= -.24854742E+02 E0= -.24774471E+02  EK=  .51348E+01 SP=  .00E+00 SK=  .00E+00 mag=      1.000
       N       E                     dE             d eps       ncg     rms          rms(c)                                      
DAV:   1     -.248446253261E+02     .10100E-01    -.17178E+00 12712    .925E+00     .906E-03                                     
RMM:   2     -.248533450738E+02    -.87197E-02    -.26772E-02 11485    .104E-01     .320E-03                                     
RMM:   3     -.248540007595E+02    -.65569E-03    -.57296E-04  8205    .163E-02     .206E-03                                     
RMM:   4     -.248543567345E+02    -.35597E-03    -.61252E-05  4834    .682E-03     .124E-03                                     
RMM:   5     -.248547027763E+02    -.34604E-03    -.15233E-05  6398    .546E-03     .350E-04                                     
RMM:   6     -.248547853472E+02    -.82571E-04    -.78978E-07  3290    .300E-03     .168E-04                                     
RMM:   7     -.248548089188E+02    -.23572E-04    -.72725E-07  3683    .319E-03                                                  
    5 T=  3056. E= -.19719987E+02 F= -.24854809E+02 E0= -.24774539E+02  EK=  .51348E+01 SP=  .00E+00 SK=  .00E+00 mag=      1.000
       N       E                     dE             d eps       ncg     rms          rms(c)                                      
DAV:   1     -.248435031424E+02     .11282E-01    -.10064E+00 12320    .981E+00     .890E-03                                     
RMM:   2     -.248534873876E+02    -.99842E-02    -.38158E-02 11750    .167E-01     .267E-03                                     
RMM:   3     -.248540712544E+02    -.58387E-03    -.74367E-04  8887    .236E-02     .161E-03                                     
RMM:   4     -.248542085541E+02    -.13730E-03    -.68603E-05  5720    .898E-03     .115E-03                                     
RMM:   5     -.248544738311E+02    -.26528E-03    -.86290E-06  5022    .467E-03     .684E-04                                     
RMM:   6     -.248546702950E+02    -.19646E-03    -.18893E-06  5028    .411E-03     .294E-04                                     
RMM:   7     -.248548308806E+02    -.16059E-03    -.15365E-06  3636    .334E-03     .125E-04                                     
RMM:   8     -.248548574461E+02    -.26566E-04    -.39174E-06  3681    .408E-03                                                  
    6 T=  3056. E= -.19719978E+02 F= -.24854857E+02 E0= -.24774588E+02  EK=  .51349E+01 SP=  .00E+00 SK=  .00E+00 mag=      1.000
       N       E                     dE             d eps       ncg     rms          rms(c)                                      
DAV:   1     -.248472629675E+02     .75679E-02    -.97817E-01 11520    .935E+00     .799E-03                                     
RMM:   2     -.248533134151E+02    -.60504E-02    -.20507E-03 11655    .527E-02     .327E-03                                     
RMM:   3     -.248540483813E+02    -.73497E-03    -.64083E-05  9546    .120E-02     .150E-03                                     
RMM:   4     -.248543272680E+02    -.27889E-03    -.10444E-05  5823    .551E-03     .958E-04                                     
RMM:   5     -.248547223110E+02    -.39504E-03    -.25664E-06  4309    .361E-03     .578E-04                                     
RMM:   6     -.248548521813E+02    -.12987E-03    -.82426E-07  3949    .320E-03     .175E-04                                     
RMM:   7     -.248548859898E+02    -.33809E-04    -.21025E-07  2717    .267E-03     .849E-05                                     
RMM:   8     -.248549274792E+02    -.41489E-04    -.85397E-07  3067    .301E-03     .431E-05                                     
RMM:   9     -.248549259564E+02     .15228E-05    -.74878E-08  2108    .249E-03                                                  
    7 T=  3056. E= -.19719987E+02 F= -.24854926E+02 E0= -.24774657E+02  EK=  .51349E+01 SP=  .00E+00 SK=  .00E+00 mag=      1.000
       N       E                     dE             d eps       ncg     rms          rms(c)                                      
DAV:   1     -.248473185647E+02     .76089E-02    -.14184E+00 11240    .901E+00     .792E-03                                     
RMM:   2     -.248541713542E+02    -.68528E-02    -.21218E-03 11179    .424E-02     .315E-03                                     
RMM:   3     -.248544153862E+02    -.24403E-03    -.47079E-05  8104    .850E-03     .225E-03                                     
RMM:   4     -.248544047180E+02     .10668E-04    -.40161E-06  4604    .405E-03                                                  
    8 T=  3056. E= -.19719400E+02 F= -.24854405E+02 E0= -.24774136E+02  EK=  .51350E+01 SP=  .00E+00 SK=  .00E+00 mag=      1.000
       N       E                     dE             d eps       ncg     rms          rms(c)                                      
DAV:   1     -.248465891603E+02     .78262E-02    -.38411E+00 11952    .982E+00     .860E-03                                     
RMM:   2     -.248524568274E+02    -.58677E-02    -.16129E-03 11266    .416E-02     .324E-03                                     
RMM:   3     -.248537264946E+02    -.12697E-02    -.24331E-05  9607    .885E-03     .148E-03                                     
RMM:   4     -.248548249510E+02    -.10985E-02    -.76540E-06  6070    .540E-03     .468E-04                                     
RMM:   5     -.248549861129E+02    -.16116E-03    -.11202E-06  3827    .327E-03     .306E-04                                     
RMM:   6     -.248550372645E+02    -.51152E-04    -.33120E-06  4252    .380E-03     .175E-04                                     
RMM:   7     -.248550519512E+02    -.14687E-04    -.35879E-07  2772    .288E-03                                                  
    9 T=  3056. E= -.19719979E+02 F= -.24855052E+02 E0= -.24774784E+02  EK=  .51351E+01 SP=  .00E+00 SK=  .00E+00 mag=      1.000
       N       E                     dE             d eps       ncg     rms          rms(c)                                      
DAV:   1     -.248482321144E+02     .68052E-02    -.98281E-01 12312    .871E+00     .780E-03                                     
RMM:   2     -.248543437984E+02    -.61117E-02    -.10532E-03 12095    .462E-02     .170E-03                                     
RMM:   3     -.248548586982E+02    -.51490E-03    -.25847E-05  7736    .845E-03     .122E-03                                     
RMM:   4     -.248550141164E+02    -.15542E-03    -.43064E-06  5519    .474E-03     .548E-04                                     
RMM:   5     -.248550673094E+02    -.53193E-04    -.11884E-06  4203    .366E-03     .330E-04                                     
RMM:   6     -.248551056295E+02    -.38320E-04    -.41232E-07  3602    .315E-03     .100E-04                                     
RMM:   7     -.248551117498E+02    -.61203E-05    -.30447E-07  2701    .289E-03                                                  
   10 T=  3056. E= -.19719971E+02 F= -.24855112E+02 E0= -.24774844E+02  EK=  .51351E+01 SP=  .00E+00 SK=  .00E+00 mag=      1.000
       N       E                     dE             d eps       ncg     rms          rms(c)                                      
DAV:   1     -.248462015157E+02     .89041E-02    -.18798E+00 11840    .774E+00     .835E-03                                     
RMM:   2     -.248543975164E+02    -.81960E-02    -.12123E-02 11148    .755E-02     .194E-03                                     
RMM:   3     -.248546761594E+02    -.27864E-03    -.25777E-04  8784    .136E-02     .112E-03                                     
RMM:   4     -.248548105356E+02    -.13438E-03    -.24339E-05  4697    .546E-03     .788E-04                                     
RMM:   5     -.248550642312E+02    -.25370E-03    -.34351E-06  4957    .423E-03     .347E-04                                     
RMM:   6     -.248551534762E+02    -.89245E-04    -.23620E-06  4401    .402E-03     .252E-04                                     
RMM:   7     -.248551899151E+02    -.36439E-04    -.37775E-06  3829    .393E-03     .956E-05                                     
RMM:   8     -.248551899936E+02    -.78475E-07    -.21880E-07  2246    .261E-03                                                  
   11 T=  3056. E= -.19719980E+02 F= -.24855190E+02 E0= -.24774923E+02  EK=  .51352E+01 SP=  .00E+00 SK=  .00E+00 mag=      1.000
       N       E                     dE             d eps       ncg     rms          rms(c)                                      
DAV:   1     -.248477678647E+02     .74221E-02    -.20714E+00 11376    .976E+00     .789E-03                                     
RMM:   2     -.248543923875E+02    -.66245E-02    -.29155E-04 11015    .280E-02     .225E-03                                     
RMM:   3     -.248549099337E+02    -.51755E-03    -.11511E-05  8049    .733E-03     .878E-04                                     
RMM:   4     -.248551701447E+02    -.26021E-03    -.37097E-06  4879    .436E-03     .499E-04                                     
RMM:   5     -.248552216878E+02    -.51543E-04    -.48328E-07  3415    .299E-03     .233E-04                                     
RMM:   6     -.248552510975E+02    -.29410E-04    -.72295E-07  3502    .319E-03                                                  
   12 T=  3056. E= -.19719970E+02 F= -.24855251E+02 E0= -.24774985E+02  EK=  .51353E+01 SP=  .00E+00 SK=  .00E+00 mag=      1.000
       N       E                     dE             d eps       ncg     rms          rms(c)                                      
DAV:   1     -.248471892467E+02     .80324E-02    -.46557E+00 12296    .117E+01     .788E-03                                     
RMM:   2     -.248544602018E+02    -.72710E-02    -.65311E-03 12027    .869E-02     .245E-03                                     
RMM:   3     -.248548381907E+02    -.37799E-03    -.12076E-04  8775    .130E-02     .146E-03                                     
RMM:   4     -.248551303867E+02    -.29220E-03    -.13553E-05  5378    .560E-03     .762E-04                                     
RMM:   5     -.248552886206E+02    -.15823E-03    -.28071E-06  5531    .451E-03     .223E-04                                     
RMM:   6     -.248552907050E+02    -.20845E-05    -.10095E-06  3056    .309E-03                                                  
   13 T=  3056. E= -.19719934E+02 F= -.24855291E+02 E0= -.24775025E+02  EK=  .51354E+01 SP=  .00E+00 SK=  .00E+00 mag=      1.000
       N       E                     dE             d eps       ncg     rms          rms(c)                                      
DAV:   1     -.248478192560E+02     .74694E-02    -.12329E+00 11872    .107E+01     .787E-03                                     
RMM:   2     -.248545751005E+02    -.67558E-02    -.16462E-03 11610    .510E-02     .228E-03                                     
RMM:   3     -.248551316331E+02    -.55653E-03    -.45040E-05  8131    .973E-03     .126E-03                                     
RMM:   4     -.248552833131E+02    -.15168E-03    -.59200E-06  5530    .516E-03     .330E-04                                     
RMM:   5     -.248553503232E+02    -.67010E-04    -.10118E-06  3690    .336E-03     .175E-04                                     
RMM:   6     -.248554030066E+02    -.52683E-04    -.16545E-06  4021    .361E-03     .516E-05                                     
RMM:   7     -.248554093932E+02    -.63866E-05    -.56159E-07  2712    .294E-03                                                  
   14 T=  3056. E= -.19719976E+02 F= -.24855409E+02 E0= -.24775144E+02  EK=  .51354E+01 SP=  .00E+00 SK=  .00E+00 mag=      1.000
       N       E                     dE             d eps       ncg     rms          rms(c)                                      
DAV:   1     -.248459118559E+02     .94912E-02    -.11997E+00 12440    .102E+01     .810E-03                                     
RMM:   2     -.248546720546E+02    -.87602E-02    -.20927E-02 12162    .118E-01     .242E-03                                     
RMM:   3     -.248552487053E+02    -.57665E-03    -.28034E-04  9160    .166E-02     .832E-04                                     
RMM:   4     -.248553409292E+02    -.92224E-04    -.22091E-05  4992    .590E-03     .664E-04                                     
RMM:   5     -.248553991102E+02    -.58181E-04    -.63919E-06  4779    .430E-03     .530E-04                                     
RMM:   6     -.248554512545E+02    -.52144E-04    -.10870E-06  3561    .322E-03     .326E-04                                     
RMM:   7     -.248554804732E+02    -.29219E-04    -.14319E-06  4169    .348E-03                                                  
   15 T=  3056. E= -.19719967E+02 F= -.24855480E+02 E0= -.24775216E+02  EK=  .51355E+01 SP=  .00E+00 SK=  .00E+00 mag=      1.000
       N       E                     dE             d eps       ncg     rms          rms(c)                                      
DAV:   1     -.248461720345E+02     .92792E-02    -.20240E+00 12768    .960E+00     .809E-03                                     
RMM:   2     -.248547821267E+02    -.86101E-02    -.18733E-02 11524    .101E-01     .199E-03                                     
RMM:   3     -.248553672568E+02    -.58513E-03    -.72942E-04  8413    .156E-02     .887E-04                                     
RMM:   4     -.248554005797E+02    -.33323E-04    -.50901E-05  5790    .703E-03     .653E-04                                     
RMM:   5     -.248554753420E+02    -.74762E-04    -.87450E-06  3992    .379E-03     .497E-04                                     
RMM:   6     -.248555451510E+02    -.69809E-04    -.10257E-06  3416    .337E-03     .182E-04                                     
RMM:   7     -.248555601718E+02    -.15021E-04    -.86794E-07  3323    .335E-03                                                  
   16 T=  3056. E= -.19719965E+02 F= -.24855560E+02 E0= -.24775296E+02  EK=  .51356E+01 SP=  .00E+00 SK=  .00E+00 mag=      1.000
       N       E                     dE             d eps       ncg     rms          rms(c)                                      
DAV:   1     -.248458672053E+02     .96779E-02    -.12135E+00 12312    .991E+00     .817E-03                                     
RMM:   2     -.248548310118E+02    -.89638E-02    -.22537E-02 11904    .101E-01     .315E-03                                     
RMM:   3     -.248553118351E+02    -.48082E-03    -.59670E-04  8645    .167E-02     .190E-03                                     
RMM:   4     -.248554280701E+02    -.11623E-03    -.64943E-05  5801    .670E-03     .109E-03                                     
RMM:   5     -.248555772977E+02    -.14923E-03    -.87120E-06  4815    .416E-03     .476E-04                                     
RMM:   6     -.248556240167E+02    -.46719E-04    -.31420E-06  5192    .442E-03     .285E-04                                     
RMM:   7     -.248556124930E+02     .11524E-04    -.56227E-07  2735    .282E-03                                                  
   17 T=  3056. E= -.19719935E+02 F= -.24855612E+02 E0= -.24775349E+02  EK=  .51357E+01 SP=  .00E+00 SK=  .00E+00 mag=      1.000
       N       E                     dE             d eps       ncg     rms          rms(c)                                      
DAV:   1     -.248482108376E+02     .74132E-02    -.13582E+00 11808    .102E+01     .788E-03                                     
RMM:   2     -.248548146777E+02    -.66038E-02    -.56855E-04 11338    .368E-02     .231E-03                                     
RMM:   3     -.248551411425E+02    -.32646E-03    -.15911E-05  8016    .793E-03     .137E-03                                     
RMM:   4     -.248555450171E+02    -.40387E-03    -.30691E-06  5245    .450E-03     .552E-04                                     
RMM:   5     -.248556762671E+02    -.13125E-03    -.26838E-06  5190    .450E-03     .242E-04                                     
RMM:   6     -.248557070615E+02    -.30794E-04    -.86459E-07  3038    .300E-03     .156E-04                                     
RMM:   7     -.248557218156E+02    -.14754E-04    -.24484E-06  3793    .367E-03                                                  
   18 T=  3056. E= -.19719959E+02 F= -.24855722E+02 E0= -.24775459E+02  EK=  .51358E+01 SP=  .00E+00 SK=  .00E+00 mag=      1.000
       N       E                     dE             d eps       ncg     rms          rms(c)                                      
DAV:   1     -.248479443994E+02     .77627E-02    -.18138E+00 12248    .105E+01     .792E-03                                     
RMM:   2     -.248550736889E+02    -.71293E-02    -.45217E-03 11826    .620E-02     .353E-03                                     
RMM:   3     -.248554408756E+02    -.36719E-03    -.79741E-05  8881    .111E-02     .201E-03                                     
RMM:   4     -.248556131550E+02    -.17228E-03    -.12080E-05  6026    .564E-03     .109E-03                                     
RMM:   5     -.248557570018E+02    -.14385E-03    -.30392E-06  5722    .451E-03     .394E-04                                     
RMM:   6     -.248557895454E+02    -.32544E-04    -.19330E-06  3297    .329E-03     .212E-04                                     
RMM:   7     -.248558103023E+02    -.20757E-04    -.25412E-06  4014    .393E-03                                                  
   19 T=  3056. E= -.19719959E+02 F= -.24855810E+02 E0= -.24775548E+02  EK=  .51359E+01 SP=  .00E+00 SK=  .00E+00 mag=      1.000
       N       E                     dE             d eps       ncg     rms          rms(c)                                      
DAV:   1     -.248465588084E+02     .92307E-02    -.90447E-01 12104    .892E+00     .857E-03                                     
RMM:   2     -.248551132598E+02    -.85545E-02    -.18665E-02 11460    .959E-02     .219E-03                                     
RMM:   3     -.248557061863E+02    -.59293E-03    -.34210E-04  8399    .143E-02     .171E-03                                     
RMM:   4     -.248557925107E+02    -.86324E-04    -.25915E-05  5039    .592E-03     .114E-03                                     
RMM:   5     -.248558445261E+02    -.52015E-04    -.45359E-06  4699    .418E-03     .542E-04                                     
RMM:   6     -.248558893275E+02    -.44801E-04    -.23768E-06  4475    .400E-03     .162E-04                                     
RMM:   7     -.248558991447E+02    -.98172E-05    -.23111E-06  3961    .403E-03                                                  
   20 T=  3056. E= -.19719959E+02 F= -.24855899E+02 E0= -.24775637E+02  EK=  .51359E+01 SP=  .00E+00 SK=  .00E+00 mag=      1.000
       N       E                     dE             d eps       ncg     rms          rms(c)                                      
DAV:   1     -.248483370623E+02     .75523E-02    -.12512E+00 12008    .929E+00     .787E-03                                     
RMM:   2     -.248552269281E+02    -.68899E-02    -.26444E-03 11659    .509E-02     .311E-03                                     
RMM:   3     -.248557173221E+02    -.49039E-03    -.65299E-05  8420    .108E-02     .147E-03                                     
RMM:   4     -.248558376151E+02    -.12029E-03    -.42574E-06  5029    .440E-03     .625E-04                                     
RMM:   5     -.248559347935E+02    -.97178E-04    -.40024E-06  4561    .425E-03     .395E-04                                     
RMM:   6     -.248559787080E+02    -.43915E-04    -.27404E-06  4071    .382E-03     .162E-04                                     
RMM:   7     -.248559912232E+02    -.12515E-04    -.34203E-06  4113    .378E-03                                                  
   21 T=  3056. E= -.19719960E+02 F= -.24855991E+02 E0= -.24775730E+02  EK=  .51360E+01 SP=  .00E+00 SK=  .00E+00 mag=      1.000
       N       E                     dE             d eps       ncg     rms          rms(c)                                      
DAV:   1     -.248461024202E+02     .98763E-02    -.72801E-01 12672    .102E+01     .808E-03                                     
RMM:   2     -.248552401200E+02    -.91377E-02    -.24339E-02 11918    .127E-01     .289E-03                                     
RMM:   3     -.248554300593E+02    -.18994E-03    -.74363E-04  8732    .197E-02     .154E-03                                     
RMM:   4     -.248555061520E+02    -.76093E-04    -.44132E-05  5224    .686E-03     .120E-03                                     
RMM:   5     -.248558201118E+02    -.31396E-03    -.11073E-05  4924    .463E-03     .905E-04                                     
RMM:   6     -.248560278240E+02    -.20771E-03    -.54330E-06  5261    .487E-03     .259E-04                                     
RMM:   7     -.248560778881E+02    -.50064E-04    -.35015E-06  4708    .500E-03     .190E-04                                     
RMM:   8     -.248560762586E+02     .16295E-05    -.12802E-07  2203    .256E-03                                                  
   22 T=  3057. E= -.19719953E+02 F= -.24856076E+02 E0= -.24775815E+02  EK=  .51361E+01 SP=  .00E+00 SK=  .00E+00 mag=      1.000
       N       E                     dE             d eps       ncg     rms          rms(c)                                      
DAV:   1     -.248480307954E+02     .80471E-02    -.22190E+00 11600    .104E+01     .794E-03                                     
RMM:   2     -.248554653690E+02    -.74346E-02    -.74496E-03 11555    .665E-02     .204E-03                                     
RMM:   3     -.248559575257E+02    -.49216E-03    -.96704E-05  7621    .103E-02     .107E-03                                     
RMM:   4     -.248560791635E+02    -.12164E-03    -.90887E-06  5097    .510E-03     .474E-04                                     
RMM:   5     -.248561557806E+02    -.76617E-04    -.37981E-06  5138    .479E-03     .177E-04                                     
RMM:   6     -.248561713521E+02    -.15572E-04    -.22886E-06  3665    .376E-03                                                  
   23 T=  3057. E= -.19719953E+02 F= -.24856171E+02 E0= -.24775911E+02  EK=  .51362E+01 SP=  .00E+00 SK=  .00E+00 mag=      1.000
       N       E                     dE             d eps       ncg     rms          rms(c)                                      
DAV:   1     -.248484949235E+02     .76609E-02    -.14795E+00 12448    .103E+01     .788E-03                                     
RMM:   2     -.248555756047E+02    -.70807E-02    -.35368E-03 11811    .586E-02     .185E-03                                     
RMM:   3     -.248560038163E+02    -.42821E-03    -.76931E-05  7891    .107E-02     .938E-04                                     
RMM:   4     -.248561412243E+02    -.13741E-03    -.10668E-05  5269    .532E-03     .472E-04                                     
RMM:   5     -.248562360387E+02    -.94814E-04    -.40981E-06  5077    .488E-03     .177E-04                                     
RMM:   6     -.248562663649E+02    -.30326E-04    -.25212E-06  3987    .386E-03     .968E-05                                     
RMM:   7     -.248562733727E+02    -.70078E-05    -.22473E-06  3927    .387E-03                                                  
   24 T=  3057. E= -.19719959E+02 F= -.24856273E+02 E0= -.24776014E+02  EK=  .51363E+01 SP=  .00E+00 SK=  .00E+00 mag=      1.000
       N       E                     dE             d eps       ncg     rms          rms(c)                                      
DAV:   1     -.248456242184E+02     .10642E-01    -.22567E+00 13136    .102E+01     .828E-03                                     
RMM:   2     -.248556313553E+02    -.10007E-01    -.32964E-02 11975    .147E-01     .222E-03                                     
RMM:   3     -.248561186016E+02    -.48725E-03    -.55086E-04  8383    .202E-02     .114E-03                                     
RMM:   4     -.248561844192E+02    -.65818E-04    -.42866E-05  5905    .796E-03     .793E-04                                     
RMM:   5     -.248562804859E+02    -.96067E-04    -.60860E-06  4806    .463E-03     .541E-04                                     
RMM:   6     -.248563474119E+02    -.66926E-04    -.25946E-06  4717    .414E-03     .168E-04                                     
RMM:   7     -.248563648561E+02    -.17444E-04    -.28592E-06  4099    .410E-03                                                  
   25 T=  3057. E= -.19719953E+02 F= -.24856365E+02 E0= -.24776105E+02  EK=  .51364E+01 SP=  .00E+00 SK=  .00E+00 mag=      1.000
       N       E                     dE             d eps       ncg     rms          rms(c)                                      
DAV:   1     -.248469208495E+02     .94266E-02    -.17786E+00 12432    .904E+00     .806E-03                                     
RMM:   2     -.248557625717E+02    -.88417E-02    -.21024E-02 11557    .117E-01     .198E-03                                     
RMM:   3     -.248562889373E+02    -.52637E-03    -.32307E-04  8087    .165E-02     .104E-03                                     
RMM:   4     -.248563435320E+02    -.54595E-04    -.23628E-05  5262    .654E-03     .746E-04                                     
RMM:   5     -.248564192249E+02    -.75693E-04    -.41936E-06  4249    .426E-03     .381E-04                                     
RMM:   6     -.248564530915E+02    -.33867E-04    -.23507E-06  4411    .426E-03     .150E-04                                     
RMM:   7     -.248564606950E+02    -.76035E-05    -.11772E-06  3307    .348E-03                                                  
   26 T=  3057. E= -.19719949E+02 F= -.24856461E+02 E0= -.24776202E+02  EK=  .51365E+01 SP=  .00E+00 SK=  .00E+00 mag=      1.000
       N       E                     dE             d eps       ncg     rms          rms(c)                                      
DAV:   1     -.248490561522E+02     .73969E-02    -.18634E+00 11688    .112E+01     .791E-03                                     
RMM:   2     -.248558079387E+02    -.67518E-02    -.13309E-03 11689    .539E-02     .210E-03                                     
RMM:   3     -.248560785541E+02    -.27062E-03    -.33175E-05  8128    .119E-02     .136E-03                                     
RMM:   4     -.248562262681E+02    -.14771E-03    -.37469E-06  5057    .499E-03     .744E-04                                     
RMM:   5     -.248565238060E+02    -.29754E-03    -.14136E-05  5669    .697E-03     .208E-04                                     
RMM:   6     -.248565482977E+02    -.24492E-04    -.30614E-06  3919    .459E-03                                                  
   27 T=  3057. E= -.19719935E+02 F= -.24856548E+02 E0= -.24776290E+02  EK=  .51366E+01 SP=  .00E+00 SK=  .00E+00 mag=      1.000
       N       E                     dE             d eps       ncg     rms          rms(c)                                      
DAV:   1     -.248487255890E+02     .77982E-02    -.11530E+00 12456    .951E+00     .790E-03                                     
RMM:   2     -.248559446221E+02    -.72190E-02    -.49984E-03 11652    .737E-02     .195E-03                                     
RMM:   3     -.248562790419E+02    -.33442E-03    -.73760E-05  8392    .126E-02     .128E-03                                     
RMM:   4     -.248564192773E+02    -.14024E-03    -.68840E-06  5114    .512E-03     .781E-04                                     
RMM:   5     -.248566356638E+02    -.21639E-03    -.10700E-05  5727    .654E-03     .260E-04                                     
RMM:   6     -.248566566738E+02    -.21010E-04    -.40831E-06  3880    .431E-03                                                  
   28 T=  3057. E= -.19719942E+02 F= -.24856657E+02 E0= -.24776399E+02  EK=  .51367E+01 SP=  .00E+00 SK=  .00E+00 mag=      1.000
       N       E                     dE             d eps       ncg     rms          rms(c)                                      
DAV:   1     -.248491424156E+02     .74932E-02    -.86578E-01 13024    .719E+00     .779E-03                                     
RMM:   2     -.248561520676E+02    -.70097E-02    -.33974E-03 11104    .540E-02     .178E-03                                     
RMM:   3     -.248565803888E+02    -.42832E-03    -.58582E-05  8041    .108E-02     .106E-03                                     
RMM:   4     -.248567091414E+02    -.12875E-03    -.62580E-06  4554    .467E-03     .527E-04                                     
RMM:   5     -.248567541739E+02    -.45033E-04    -.34063E-06  4776    .482E-03     .203E-04                                     
RMM:   6     -.248567648539E+02    -.10680E-04    -.11752E-06  3316    .350E-03                                                  
   29 T=  3057. E= -.19719946E+02 F= -.24856765E+02 E0= -.24776507E+02  EK=  .51368E+01 SP=  .00E+00 SK=  .00E+00 mag=      1.000
       N       E                     dE             d eps       ncg     rms          rms(c)                                      
DAV:   1     -.248493967176E+02     .73575E-02    -.14592E+00 12152    .893E+00     .784E-03                                     
RMM:   2     -.248561926591E+02    -.67959E-02    -.11702E-03 11291    .431E-02     .210E-03                                     
RMM:   3     -.248566180125E+02    -.42535E-03    -.26675E-05  7926    .986E-03     .125E-03                                     
RMM:   4     -.248566802360E+02    -.62224E-04    -.32918E-06  4902    .461E-03     .832E-04                                     
RMM:   5     -.248568353469E+02    -.15511E-03    -.11990E-05  5889    .630E-03     .299E-04                                     
RMM:   6     -.248568635712E+02    -.28224E-04    -.80928E-06  4322    .502E-03                                                  
   30 T=  3057. E= -.19719941E+02 F= -.24856864E+02 E0= -.24776607E+02  EK=  .51369E+01 SP=  .00E+00 SK=  .00E+00 mag=      1.000
       N       E                     dE             d eps       ncg     rms          rms(c)                                      
DAV:   1     -.248446563787E+02     .12179E-01    -.38660E+00 12832    .102E+01     .854E-03                                     
RMM:   2     -.248561619459E+02    -.11506E-01    -.48120E-02 11802    .144E-01     .270E-03                                     
RMM:   3     -.248567300617E+02    -.56812E-03    -.11455E-03  8327    .233E-02     .162E-03                                     
RMM:   4     -.248568184953E+02    -.88434E-04    -.10131E-04  5638    .858E-03     .132E-03                                     
RMM:   5     -.248568952787E+02    -.76783E-04    -.96497E-06  4890    .474E-03     .728E-04                                     
RMM:   6     -.248569527795E+02    -.57501E-04    -.47417E-06  4928    .461E-03     .383E-04                                     
RMM:   7     -.248569625373E+02    -.97578E-05    -.12796E-06  3556    .337E-03                                                  
   31 T=  3057. E= -.19719934E+02 F= -.24856963E+02 E0= -.24776706E+02  EK=  .51370E+01 SP=  .00E+00 SK=  .00E+00 mag=      1.000
       N       E                     dE             d eps       ncg     rms          rms(c)                                      
DAV:   1     -.248471326310E+02     .98201E-02    -.23423E+00 12448    .970E+00     .826E-03                                     
RMM:   2     -.248561493830E+02    -.90168E-02    -.24744E-02 11847    .122E-01     .279E-03                                     
RMM:   3     -.248566756556E+02    -.52627E-03    -.55918E-04  8150    .184E-02     .171E-03                                     
RMM:   4     -.248569373321E+02    -.26168E-03    -.46441E-05  5400    .728E-03     .800E-04                                     
RMM:   5     -.248570602136E+02    -.12288E-03    -.10960E-05  5602    .596E-03     .304E-04                                     
RMM:   6     -.248570754870E+02    -.15273E-04    -.42736E-06  4247    .472E-03                                                  
   32 T=  3057. E= -.19719940E+02 F= -.24857075E+02 E0= -.24776820E+02  EK=  .51371E+01 SP=  .00E+00 SK=  .00E+00 mag=       .999
       N       E                     dE             d eps       ncg     rms          rms(c)                                      
DAV:   1     -.248488814923E+02     .81787E-02    -.87048E-01 12752    .866E+00     .815E-03                                     
RMM:   2     -.248565567365E+02    -.76752E-02    -.10462E-02 11759    .820E-02     .299E-03                                     
RMM:   3     -.248568786189E+02    -.32188E-03    -.11128E-04  7988    .143E-02     .169E-03                                     
RMM:   4     -.248570222909E+02    -.14367E-03    -.71886E-06  5318    .532E-03     .978E-04                                     
RMM:   5     -.248571636226E+02    -.14133E-03    -.89898E-06  5804    .652E-03     .416E-04                                     
RMM:   6     -.248571735160E+02    -.98935E-05    -.34022E-06  4216    .478E-03                                                  
   33 T=  3057. E= -.19719932E+02 F= -.24857174E+02 E0= -.24776918E+02  EK=  .51372E+01 SP=  .00E+00 SK=  .00E+00 mag=       .999
       N       E                     dE             d eps       ncg     rms          rms(c)                                      
DAV:   1     -.248496429601E+02     .75207E-02    -.22809E+00 12736    .101E+01     .784E-03                                     
RMM:   2     -.248564833614E+02    -.68404E-02    -.28887E-03 11948    .572E-02     .256E-03                                     
RMM:   3     -.248568149164E+02    -.33155E-03    -.70400E-05  7850    .106E-02     .137E-03                                     
RMM:   4     -.248571516825E+02    -.33677E-03    -.12106E-05  5904    .651E-03     .774E-04                                     
RMM:   5     -.248572773585E+02    -.12568E-03    -.19452E-05  6022    .802E-03     .240E-04                                     
RMM:   6     -.248572869799E+02    -.96214E-05    -.40492E-06  3932    .443E-03                                                  
   34 T=  3057. E= -.19719939E+02 F= -.24857287E+02 E0= -.24777032E+02  EK=  .51373E+01 SP=  .00E+00 SK=  .00E+00 mag=       .999
       N       E                     dE             d eps       ncg     rms          rms(c)                                      
DAV:   1     -.248432211592E+02     .14056E-01    -.19365E+00 13808    .101E+01     .920E-03                                     
RMM:   2     -.248566301167E+02    -.13409E-01    -.67711E-02 12125    .206E-01     .354E-03                                     
RMM:   3     -.248572082592E+02    -.57814E-03    -.86413E-04  9249    .261E-02     .162E-03                                     
RMM:   4     -.248572978699E+02    -.89611E-04    -.48994E-05  5624    .817E-03     .117E-03                                     
RMM:   5     -.248573450843E+02    -.47214E-04    -.61862E-06  4862    .483E-03     .625E-04                                     
RMM:   6     -.248573677475E+02    -.22663E-04    -.27435E-06  4570    .429E-03                                                  
   35 T=  3057. E= -.19719912E+02 F= -.24857368E+02 E0= -.24777113E+02  EK=  .51375E+01 SP=  .00E+00 SK=  .00E+00 mag=       .999
       N       E                     dE             d eps       ncg     rms          rms(c)                                      
DAV:   1     -.248472551713E+02     .10090E-01    -.21709E+00 12984    .927E+00     .834E-03                                     
RMM:   2     -.248566841181E+02    -.94289E-02    -.27250E-02 12004    .108E-01     .267E-03                                     
RMM:   3     -.248572632303E+02    -.57911E-03    -.14249E-03  8241    .192E-02     .170E-03                                     
RMM:   4     -.248573528645E+02    -.89634E-04    -.99801E-05  5330    .713E-03     .114E-03                                     
RMM:   5     -.248574642896E+02    -.11143E-03    -.22520E-05  5837    .677E-03     .525E-04                                     
RMM:   6     -.248574815152E+02    -.17226E-04    -.70760E-06  4641    .572E-03                                                  
   36 T=  3057. E= -.19719916E+02 F= -.24857482E+02 E0= -.24777227E+02  EK=  .51376E+01 SP=  .00E+00 SK=  .00E+00 mag=       .999
       N       E                     dE             d eps       ncg     rms          rms(c)                                      
DAV:   1     -.248499642896E+02     .75000E-02    -.20701E+00 13416    .996E+00     .795E-03                                     
RMM:   2     -.248568533816E+02    -.68891E-02    -.39413E-03 12018    .782E-02     .253E-03                                     
RMM:   3     -.248573241385E+02    -.47076E-03    -.67384E-05  8246    .134E-02     .189E-03                                     
RMM:   4     -.248574752774E+02    -.15114E-03    -.11446E-05  6136    .657E-03     .115E-03                                     
RMM:   5     -.248575399806E+02    -.64703E-04    -.40051E-06  5343    .485E-03     .480E-04                                     
RMM:   6     -.248575866863E+02    -.46706E-04    -.94447E-06  5338    .571E-03     .231E-04                                     
RMM:   7     -.248576089057E+02    -.22219E-04    -.10477E-05  4941    .571E-03                                                  
   37 T=  3057. E= -.19719933E+02 F= -.24857609E+02 E0= -.24777355E+02  EK=  .51377E+01 SP=  .00E+00 SK=  .00E+00 mag=       .999
       N       E                     dE             d eps       ncg     rms          rms(c)                                      
DAV:   1     -.248463200208E+02     .11267E-01    -.27883E+00 14000    .795E+00     .854E-03                                     
RMM:   2     -.248571405936E+02    -.10821E-01    -.43043E-02 11971    .116E-01     .307E-03                                     
RMM:   3     -.248573981036E+02    -.25751E-03    -.62596E-04  8487    .220E-02     .192E-03                                     
RMM:   4     -.248574905737E+02    -.92470E-04    -.25870E-05  5227    .657E-03     .131E-03                                     
RMM:   5     -.248576473548E+02    -.15678E-03    -.89769E-06  5573    .652E-03     .359E-04                                     
RMM:   6     -.248576965653E+02    -.49210E-04    -.14547E-05  5228    .688E-03     .198E-04                                     
RMM:   7     -.248577102729E+02    -.13708E-04    -.56249E-06  4183    .486E-03                                                  
   38 T=  3057. E= -.19719924E+02 F= -.24857710E+02 E0= -.24777457E+02  EK=  .51378E+01 SP=  .00E+00 SK=  .00E+00 mag=       .999
       N       E                     dE             d eps       ncg     rms          rms(c)                                      
DAV:   1     -.248501429734E+02     .75536E-02    -.22598E+00 12816    .846E+00     .796E-03                                     
RMM:   2     -.248570082791E+02    -.68653E-02    -.37398E-03 11220    .533E-02     .252E-03                                     
RMM:   3     -.248575129102E+02    -.50463E-03    -.62637E-05  7850    .108E-02     .160E-03                                     
RMM:   4     -.248577494212E+02    -.23651E-03    -.17283E-05  5799    .677E-03     .634E-04                                     
RMM:   5     -.248577994167E+02    -.49996E-04    -.17843E-05  5504    .743E-03     .273E-04                                     
RMM:   6     -.248578219558E+02    -.22539E-04    -.99085E-06  4556    .532E-03                                                  
   39 T=  3058. E= -.19719924E+02 F= -.24857822E+02 E0= -.24777569E+02  EK=  .51379E+01 SP=  .00E+00 SK=  .00E+00 mag=       .999
       N       E                     dE             d eps       ncg     rms          rms(c)                                      
DAV:   1     -.248355359388E+02     .22263E-01    -.26538E+00 13248    .916E+00     .877E-03                                     
RMM:   2     -.248591866603E+02    -.23651E-01    -.17089E-01 12351    .163E-01     .282E-03                                     
RMM:   3     -.248576504826E+02     .15362E-02    -.31408E-03  8608    .268E-02     .187E-03                                     
RMM:   4     -.248577346020E+02    -.84119E-04    -.18651E-04  5598    .774E-03     .145E-03                                     
RMM:   5     -.248576980373E+02     .36565E-04    -.82948E-06  4206    .428E-03     .102E-03                                     
RMM:   6     -.248578131795E+02    -.11514E-03    -.28916E-05  5930    .768E-03     .496E-04                                     
RMM:   7     -.248578687597E+02    -.55580E-04    -.10162E-05  4899    .595E-03     .303E-04                                     
RMM:   8     -.248579312147E+02    -.62455E-04    -.13448E-05  5200    .693E-03     .112E-04                                     
RMM:   9     -.248579344433E+02    -.32286E-05    -.12354E-06  3031    .315E-03                                                  
   40 T=  3058. E= -.19719925E+02 F= -.24857934E+02 E0= -.24777682E+02  EK=  .51380E+01 SP=  .00E+00 SK=  .00E+00 mag=       .999
       N       E                     dE             d eps       ncg     rms          rms(c)                                      
DAV:   1     -.248508046850E+02     .71265E-02    -.86875E-01 13224    .818E+00     .781E-03                                     
RMM:   2     -.248573365114E+02    -.65318E-02    -.16606E-03 12479    .575E-02     .239E-03                                     
RMM:   3     -.248577392466E+02    -.40274E-03    -.53809E-05  8462    .139E-02     .134E-03                                     
RMM:   4     -.248579330313E+02    -.19378E-03    -.31941E-06  5153    .479E-03     .643E-04                                     
RMM:   5     -.248580347741E+02    -.10174E-03    -.23855E-05  5866    .880E-03     .242E-04                                     
RMM:   6     -.248580435705E+02    -.87964E-05    -.19082E-06  4013    .412E-03                                                  
   41 T=  3058. E= -.19719925E+02 F= -.24858044E+02 E0= -.24777791E+02  EK=  .51381E+01 SP=  .00E+00 SK=  .00E+00 mag=       .998
       N       E                     dE             d eps       ncg     rms          rms(c)                                      
DAV:   1     -.248509625009E+02     .70723E-02    -.14821E+00 12944    .886E+00     .779E-03                                     
RMM:   2     -.248575643734E+02    -.66019E-02    -.47826E-04 11730    .365E-02     .207E-03                                     
RMM:   3     -.248578997762E+02    -.33540E-03    -.21256E-05  7922    .107E-02     .145E-03                                     
RMM:   4     -.248579608435E+02    -.61067E-04    -.37648E-06  5002    .443E-03     .103E-03                                     
RMM:   5     -.248581259937E+02    -.16515E-03    -.25295E-05  6215    .868E-03     .422E-04                                     
RMM:   6     -.248581274713E+02    -.14776E-05    -.31944E-06  3811    .438E-03                                                  
   42 T=  3058. E= -.19719901E+02 F= -.24858127E+02 E0= -.24777875E+02  EK=  .51382E+01 SP=  .00E+00 SK=  .00E+00 mag=       .998
       N       E                     dE             d eps       ncg     rms          rms(c)                                      
DAV:   1     -.248493494994E+02     .87765E-02    -.22016E+00 14136    .932E+00     .793E-03                                     
RMM:   2     -.248576076156E+02    -.82581E-02    -.15996E-02 12463    .126E-01     .249E-03                                     
RMM:   3     -.248580749715E+02    -.46736E-03    -.28706E-04  8909    .183E-02     .143E-03                                     
RMM:   4     -.248581276522E+02    -.52681E-04    -.34361E-05  6209    .817E-03     .102E-03                                     
RMM:   5     -.248582385624E+02    -.11091E-03    -.65792E-05  6697    .107E-02     .418E-04                                     
RMM:   6     -.248582531806E+02    -.14618E-04    -.10190E-05  4941    .580E-03                                                  
   43 T=  3058. E= -.19719918E+02 F= -.24858253E+02 E0= -.24778001E+02  EK=  .51383E+01 SP=  .00E+00 SK=  .00E+00 mag=       .998
       N       E                     dE             d eps       ncg     rms          rms(c)                                      
DAV:   1     -.248509599114E+02     .72787E-02    -.23200E+00 13680    .904E+00     .790E-03                                     
RMM:   2     -.248579228019E+02    -.69629E-02    -.59726E-03 12353    .740E-02     .167E-03                                     
RMM:   3     -.248583166326E+02    -.39383E-03    -.17378E-04  8498    .137E-02     .893E-04                                     
RMM:   4     -.248583606288E+02    -.43996E-04    -.13913E-05  5211    .545E-03     .584E-04                                     
RMM:   5     -.248583764450E+02    -.15816E-04    -.40999E-06  4624    .430E-03                                                  
   44 T=  3058. E= -.19719931E+02 F= -.24858376E+02 E0= -.24778125E+02  EK=  .51384E+01 SP=  .00E+00 SK=  .00E+00 mag=       .998
       N       E                     dE             d eps       ncg     rms          rms(c)                                      
DAV:   1     -.248510509697E+02     .73097E-02    -.25071E+00 13864    .105E+01     .796E-03                                     
RMM:   2     -.248580831880E+02    -.70322E-02    -.60309E-03 12432    .726E-02     .259E-03                                     
RMM:   3     -.248584198076E+02    -.33662E-03    -.21821E-04  8910    .139E-02     .905E-04                                     
RMM:   4     -.248584628655E+02    -.43058E-04    -.11178E-05  5280    .564E-03     .571E-04                                     
RMM:   5     -.248584854405E+02    -.22575E-04    -.61184E-06  5149    .516E-03                                                  
   45 T=  3058. E= -.19719931E+02 F= -.24858485E+02 E0= -.24778234E+02  EK=  .51386E+01 SP=  .00E+00 SK=  .00E+00 mag=       .998
       N       E                     dE             d eps       ncg     rms          rms(c)                                      
DAV:   1     -.248499692501E+02     .84936E-02    -.11414E+00 13840    .995E+00     .812E-03                                     
RMM:   2     -.248580508461E+02    -.80816E-02    -.16187E-02 12240    .958E-02     .238E-03                                     
RMM:   3     -.248584948710E+02    -.44402E-03    -.34253E-04  8788    .167E-02     .110E-03                                     
RMM:   4     -.248585309699E+02    -.36099E-04    -.28347E-05  5728    .726E-03     .715E-04                                     
RMM:   5     -.248585742882E+02    -.43318E-04    -.23733E-05  5818    .779E-03     .347E-04                                     
RMM:   6     -.248585825024E+02    -.82142E-05    -.41902E-06  4085    .457E-03                                                  
   46 T=  3058. E= -.19719918E+02 F= -.24858583E+02 E0= -.24778331E+02  EK=  .51387E+01 SP=  .00E+00 SK=  .00E+00 mag=       .997
       N       E                     dE             d eps       ncg     rms          rms(c)                                      
DAV:   1     -.248507861997E+02     .77881E-02    -.24639E+00 13512    .963E+00     .788E-03                                     
RMM:   2     -.248580915200E+02    -.73053E-02    -.91331E-03 12304    .748E-02     .212E-03                                     
RMM:   3     -.248586013050E+02    -.50979E-03    -.15102E-04  8233    .140E-02     .106E-03                                     
RMM:   4     -.248586467912E+02    -.45486E-04    -.16273E-05  5525    .579E-03     .666E-04                                     
RMM:   5     -.248586775877E+02    -.30796E-04    -.99423E-06  5160    .538E-03     .403E-04                                     
RMM:   6     -.248586921332E+02    -.14546E-04    -.25902E-06  3847    .390E-03                                                  
   47 T=  3058. E= -.19719917E+02 F= -.24858692E+02 E0= -.24778441E+02  EK=  .51388E+01 SP=  .00E+00 SK=  .00E+00 mag=       .997
       N       E                     dE             d eps       ncg     rms          rms(c)                                      
DAV:   1     -.248500237724E+02     .86538E-02    -.26504E+00 14344    .967E+00     .801E-03                                     
RMM:   2     -.248584448188E+02    -.84210E-02    -.21398E-02 12675    .139E-01     .236E-03                                     
RMM:   3     -.248587542885E+02    -.30947E-03    -.49699E-04  8885    .215E-02     .128E-03                                     
RMM:   4     -.248587853250E+02    -.31037E-04    -.28605E-05  5977    .805E-03     .735E-04                                     
RMM:   5     -.248587936084E+02    -.82833E-05    -.87452E-06  5176    .562E-03                                                  
   48 T=  3058. E= -.19719909E+02 F= -.24858794E+02 E0= -.24778543E+02  EK=  .51389E+01 SP=  .00E+00 SK=  .00E+00 mag=       .997
       N       E                     dE             d eps       ncg     rms          rms(c)                                      
DAV:   1     -.248508266980E+02     .79586E-02    -.10324E+00 14168    .863E+00     .812E-03                                     
RMM:   2     -.248584599599E+02    -.76333E-02    -.15773E-02 12353    .871E-02     .246E-03                                     
RMM:   3     -.248588535590E+02    -.39360E-03    -.22475E-04  8547    .153E-02     .134E-03                                     
RMM:   4     -.248588979383E+02    -.44379E-04    -.30756E-05  5970    .783E-03     .767E-04                                     
RMM:   5     -.248589133820E+02    -.15444E-04    -.80006E-06  5122    .514E-03                                                  
   49 T=  3058. E= -.19719919E+02 F= -.24858913E+02 E0= -.24778663E+02  EK=  .51390E+01 SP=  .00E+00 SK=  .00E+00 mag=       .997
       N       E                     dE             d eps       ncg     rms          rms(c)                                      
DAV:   1     -.248517350293E+02     .71629E-02    -.16852E+00 14272    .983E+00     .789E-03                                     
RMM:   2     -.248583073766E+02    -.65723E-02    -.58096E-03 12654    .895E-02     .229E-03                                     
RMM:   3     -.248588588270E+02    -.55145E-03    -.12686E-04  8705    .178E-02     .128E-03                                     
RMM:   4     -.248589827302E+02    -.12390E-03    -.25195E-05  6081    .820E-03     .690E-04                                     
RMM:   5     -.248590191485E+02    -.36418E-04    -.21717E-05  5860    .770E-03     .316E-04                                     
RMM:   6     -.248590247459E+02    -.55975E-05    -.24396E-06  3728    .388E-03                                                  
   50 T=  3058. E= -.19719919E+02 F= -.24859025E+02 E0= -.24778774E+02  EK=  .51391E+01 SP=  .00E+00 SK=  .00E+00 mag=       .996
       N       E                     dE             d eps       ncg     rms          rms(c)                                      
DAV:   1     -.248512866341E+02     .77325E-02    -.31263E+00 14064    .102E+01     .778E-03                                     
RMM:   2     -.248586876754E+02    -.74010E-02    -.12916E-02 12558    .107E-01     .214E-03                                     
RMM:   3     -.248590875362E+02    -.39986E-03    -.28572E-04  9081    .191E-02     .968E-04                                     
RMM:   4     -.248591269643E+02    -.39428E-04    -.24221E-05  5787    .726E-03     .676E-04                                     
RMM:   5     -.248591363181E+02    -.93538E-05    -.78071E-06  5135    .513E-03                                                  
   51 T=  3058. E= -.19719920E+02 F= -.24859136E+02 E0= -.24778886E+02  EK=  .51392E+01 SP=  .00E+00 SK=  .00E+00 mag=       .996
       N       E                     dE             d eps       ncg     rms          rms(c)                                      
DAV:   1     -.248518407571E+02     .72862E-02    -.15341E+00 14224    .956E+00     .796E-03                                     
RMM:   2     -.248589229299E+02    -.70822E-02    -.11210E-02 12810    .941E-02     .211E-03                                     
RMM:   3     -.248591925891E+02    -.26966E-03    -.17850E-04  8533    .146E-02     .974E-04                                     
RMM:   4     -.248592375799E+02    -.44991E-04    -.28423E-05  6063    .761E-03     .631E-04                                     
RMM:   5     -.248592449802E+02    -.74002E-05    -.39445E-06  4370    .413E-03                                                  
   52 T=  3058. E= -.19719918E+02 F= -.24859245E+02 E0= -.24778994E+02  EK=  .51393E+01 SP=  .00E+00 SK=  .00E+00 mag=       .996
       N       E                     dE             d eps       ncg     rms          rms(c)                                      
DAV:   1     -.248522800198E+02     .69576E-02    -.16606E+00 14368    .987E+00     .804E-03                                     
RMM:   2     -.248591033822E+02    -.68234E-02    -.10252E-02 12697    .986E-02     .247E-03                                     
RMM:   3     -.248593073651E+02    -.20398E-03    -.21454E-04  8871    .168E-02     .108E-03                                     
RMM:   4     -.248593290389E+02    -.21674E-04    -.13109E-05  5306    .569E-03                                                  
   53 T=  3058. E= -.19719889E+02 F= -.24859329E+02 E0= -.24779078E+02  EK=  .51394E+01 SP=  .00E+00 SK=  .00E+00 mag=       .995
       N       E                     dE             d eps       ncg     rms          rms(c)                                      
DAV:   1     -.248520385677E+02     .72688E-02    -.16464E+00 14760    .919E+00     .822E-03                                     
RMM:   2     -.248592013843E+02    -.71628E-02    -.13056E-02 12875    .107E-01     .280E-03                                     
RMM:   3     -.248594349620E+02    -.23358E-03    -.24068E-04  9323    .176E-02     .117E-03                                     
RMM:   4     -.248594397727E+02    -.48107E-05    -.19919E-05  5609    .577E-03                                                  
   54 T=  3059. E= -.19719885E+02 F= -.24859440E+02 E0= -.24779189E+02  EK=  .51396E+01 SP=  .00E+00 SK=  .00E+00 mag=       .995
       N       E                     dE             d eps       ncg     rms          rms(c)                                      
DAV:   1     -.248495358123E+02     .98991E-02    -.26519E+00 14896    .971E+00     .843E-03                                     
RMM:   2     -.248591036540E+02    -.95678E-02    -.39568E-02 12829    .180E-01     .287E-03                                     
RMM:   3     -.248595400557E+02    -.43640E-03    -.94750E-04 10192    .316E-02     .125E-03                                     
RMM:   4     -.248595619980E+02    -.21942E-04    -.49714E-05  6054    .807E-03                                                  
   55 T=  3059. E= -.19719892E+02 F= -.24859562E+02 E0= -.24779311E+02  EK=  .51397E+01 SP=  .00E+00 SK=  .00E+00 mag=       .995
       N       E                     dE             d eps       ncg     rms          rms(c)                                      
DAV:   1     -.248529008968E+02     .66392E-02    -.25838E+00 14800    .970E+00     .826E-03                                     
RMM:   2     -.248594363613E+02    -.65355E-02    -.76209E-03 13102    .915E-02     .189E-03                                     
RMM:   3     -.248596413577E+02    -.20500E-03    -.21380E-04  8903    .182E-02     .109E-03                                     
RMM:   4     -.248596723996E+02    -.31042E-04    -.11750E-05  5767    .584E-03     .722E-04                                     
RMM:   5     -.248596935799E+02    -.21180E-04    -.34458E-06  4818    .443E-03                                                  
   56 T=  3059. E= -.19719906E+02 F= -.24859694E+02 E0= -.24779443E+02  EK=  .51398E+01 SP=  .00E+00 SK=  .00E+00 mag=       .994
       N       E                     dE             d eps       ncg     rms          rms(c)                                      
DAV:   1     -.248300679081E+02     .29604E-01    -.46417E+00 15312    .106E+01     .112E-02                                     
RMM:   2     -.248628539936E+02    -.32786E-01    -.27782E-01 13287    .282E-01     .466E-03                                     
RMM:   3     -.248597332596E+02     .31207E-02    -.42227E-03 10458    .382E-02     .227E-03                                     
RMM:   4     -.248597928608E+02    -.59601E-04    -.27405E-04  5880    .103E-02     .177E-03                                     
RMM:   5     -.248598047104E+02    -.11850E-04    -.21431E-05  4831    .515E-03                                                  
   57 T=  3059. E= -.19719898E+02 F= -.24859805E+02 E0= -.24779554E+02  EK=  .51399E+01 SP=  .00E+00 SK=  .00E+00 mag=       .994
       N       E                     dE             d eps       ncg     rms          rms(c)                                      
DAV:   1     -.248472472182E+02     .12546E-01    -.16551E+00 15960    .100E+01     .940E-03                                     
RMM:   2     -.248592936036E+02    -.12046E-01    -.65129E-02 13608    .271E-01     .322E-03                                     
RMM:   3     -.248598236761E+02    -.53007E-03    -.16467E-03  9948    .382E-02     .236E-03                                     
RMM:   4     -.248598844215E+02    -.60745E-04    -.11266E-04  6943    .125E-02     .160E-03                                     
RMM:   5     -.248599167014E+02    -.32280E-04    -.13417E-05  6378    .642E-03     .567E-04                                     
RMM:   6     -.248599227805E+02    -.60791E-05    -.17598E-06  4175    .369E-03                                                  
   58 T=  3059. E= -.19719895E+02 F= -.24859923E+02 E0= -.24779671E+02  EK=  .51400E+01 SP=  .00E+00 SK=  .00E+00 mag=       .994
       N       E                     dE             d eps       ncg     rms          rms(c)                                      
DAV:   1     -.248463118741E+02     .13605E-01    -.27663E+00 15152    .910E+00     .989E-03                                     
RMM:   2     -.248597736791E+02    -.13462E-01    -.86117E-02 13269    .189E-01     .383E-03                                     
RMM:   3     -.248599808873E+02    -.20721E-03    -.17182E-03  9864    .292E-02     .274E-03                                     
RMM:   4     -.248600356747E+02    -.54787E-04    -.15607E-04  5869    .841E-03     .228E-03                                     
RMM:   5     -.248600356553E+02     .19390E-07    -.11127E-05  4763    .462E-03                                                  
   59 T=  3059. E= -.19719884E+02 F= -.24860036E+02 E0= -.24779784E+02  EK=  .51402E+01 SP=  .00E+00 SK=  .00E+00 mag=       .993
       N       E                     dE             d eps       ncg     rms          rms(c)                                      
DAV:   1     -.248545298851E+02     .55058E-02    -.15013E+00 14832    .824E+00     .877E-03                                     
RMM:   2     -.248597399253E+02    -.52100E-02    -.33679E-03 13137    .846E-02     .338E-03                                     
RMM:   3     -.248599963586E+02    -.25643E-03    -.44273E-05  8513    .107E-02     .211E-03                                     
RMM:   4     -.248601065555E+02    -.11020E-03    -.25922E-05  7082    .854E-03     .111E-03                                     
RMM:   5     -.248601635986E+02    -.57043E-04    -.27893E-05  6253    .836E-03     .457E-04                                     
RMM:   6     -.248601731684E+02    -.95697E-05    -.34054E-06  4090    .406E-03                                                  
   60 T=  3059. E= -.19719895E+02 F= -.24860173E+02 E0= -.24779921E+02  EK=  .51403E+01 SP=  .00E+00 SK=  .00E+00 mag=       .993
       N       E                     dE             d eps       ncg     rms          rms(c)                                      
DAV:   1     -.248492455425E+02     .10918E-01    -.32336E+00 15160    .908E+00     .103E-02                                     
RMM:   2     -.248594439885E+02    -.10198E-01    -.61641E-02 13143    .211E-01     .440E-03                                     
RMM:   3     -.248598037809E+02    -.35979E-03    -.10797E-03  8995    .228E-02     .303E-03                                     
RMM:   4     -.248599633910E+02    -.15961E-03    -.65437E-05  6056    .821E-03     .198E-03                                     
RMM:   5     -.248602242278E+02    -.26084E-03    -.40460E-05  6880    .983E-03     .660E-04                                     
RMM:   6     -.248602926739E+02    -.68446E-04    -.47541E-05  6093    .102E-02     .297E-04                                     
RMM:   7     -.248602977526E+02    -.50788E-05    -.31282E-06  3514    .345E-03                                                  
   61 T=  3059. E= -.19719892E+02 F= -.24860298E+02 E0= -.24780045E+02  EK=  .51404E+01 SP=  .00E+00 SK=  .00E+00 mag=       .992
       N       E                     dE             d eps       ncg     rms          rms(c)                                      
DAV:   1     -.248546493837E+02     .56433E-02    -.14026E+00 14784    .909E+00     .832E-03                                     
RMM:   2     -.248601357254E+02    -.54863E-02    -.68006E-03 12834    .106E-01     .229E-03                                     
RMM:   3     -.248603192056E+02    -.18348E-03    -.12129E-04  8103    .127E-02     .155E-03                                     
RMM:   4     -.248603973077E+02    -.78102E-04    -.29534E-05  6271    .953E-03     .968E-04                                     
RMM:   5     -.248604285866E+02    -.31279E-04    -.22291E-05  5491    .678E-03     .358E-04                                     
RMM:   6     -.248604353570E+02    -.67704E-05    -.44221E-06  4171    .434E-03                                                  
   62 T=  3059. E= -.19719896E+02 F= -.24860435E+02 E0= -.24780182E+02  EK=  .51405E+01 SP=  .00E+00 SK=  .00E+00 mag=       .991
       N       E                     dE             d eps       ncg     rms          rms(c)                                      
DAV:   1     -.248515270098E+02     .89016E-02    -.17925E+00 14736    .909E+00     .934E-03                                     
RMM:   2     -.248603043468E+02    -.87773E-02    -.45370E-02 12960    .173E-01     .312E-03                                     
RMM:   3     -.248605168777E+02    -.21253E-03    -.94009E-04  8590    .174E-02     .206E-03                                     
RMM:   4     -.248605667494E+02    -.49872E-04    -.51997E-05  6195    .918E-03     .143E-03                                     
RMM:   5     -.248605745423E+02    -.77929E-05    -.60598E-06  4939    .458E-03                                                  
   63 T=  3059. E= -.19719895E+02 F= -.24860575E+02 E0= -.24780321E+02  EK=  .51407E+01 SP=  .00E+00 SK=  .00E+00 mag=       .991
       N       E                     dE             d eps       ncg     rms          rms(c)                                      
DAV:   1     -.248557084729E+02     .48583E-02    -.15573E+00 14736    .105E+01     .838E-03                                     
RMM:   2     -.248605926706E+02    -.48842E-02    -.54620E-03 13345    .113E-01     .253E-03                                     
RMM:   3     -.248607048220E+02    -.11215E-03    -.11707E-04  9030    .148E-02     .172E-03                                     
RMM:   4     -.248607185067E+02    -.13685E-04    -.77279E-06  5891    .596E-03                                                  
   64 T=  3059. E= -.19719889E+02 F= -.24860719E+02 E0= -.24780464E+02  EK=  .51408E+01 SP=  .00E+00 SK=  .00E+00 mag=       .990
       N       E                     dE             d eps       ncg     rms          rms(c)                                      
DAV:   1     -.248500840640E+02     .10621E-01    -.20845E+00 15216    .105E+01     .102E-02                                     
RMM:   2     -.248606742070E+02    -.10590E-01    -.69894E-02 12963    .235E-01     .350E-03                                     
RMM:   3     -.248608359327E+02    -.16173E-03    -.91584E-04  9717    .245E-02     .251E-03                                     
RMM:   4     -.248608558779E+02    -.19945E-04    -.74615E-05  4945    .728E-03                                                  
   65 T=  3059. E= -.19719865E+02 F= -.24860856E+02 E0= -.24780601E+02  EK=  .51410E+01 SP=  .00E+00 SK=  .00E+00 mag=       .989
       N       E                     dE             d eps       ncg     rms          rms(c)                                      
DAV:   1     -.248557555780E+02     .50804E-02    -.17554E+00 15072    .106E+01     .877E-03                                     
RMM:   2     -.248608843126E+02    -.51287E-02    -.76934E-03 13389    .131E-01     .278E-03                                     
RMM:   3     -.248610086954E+02    -.12438E-03    -.15924E-04  8997    .185E-02     .195E-03                                     
RMM:   4     -.248610212789E+02    -.12583E-04    -.87807E-06  6033    .606E-03                                                  
   66 T=  3060. E= -.19719859E+02 F= -.24861021E+02 E0= -.24780765E+02  EK=  .51412E+01 SP=  .00E+00 SK=  .00E+00 mag=       .989
       N       E                     dE             d eps       ncg     rms          rms(c)                                      
DAV:   1     -.248568362598E+02     .41724E-02    -.34818E+00 15272    .939E+00     .864E-03                                     
RMM:   2     -.248611109804E+02    -.42747E-02    -.86816E-03 13090    .118E-01     .305E-03                                     
RMM:   3     -.248611765902E+02    -.65610E-04    -.13634E-04  8964    .130E-02     .212E-03                                     
RMM:   4     -.248612047708E+02    -.28181E-04    -.11500E-05  5779    .575E-03                                                  
   67 T=  3060. E= -.19719859E+02 F= -.24861205E+02 E0= -.24780948E+02  EK=  .51413E+01 SP=  .00E+00 SK=  .00E+00 mag=       .988
       N       E                     dE             d eps       ncg     rms          rms(c)                                      
DAV:   1     -.248494009384E+02     .11776E-01    -.20284E+00 15432    .883E+00     .961E-03                                     
RMM:   2     -.248611515122E+02    -.11751E-01    -.84653E-02 13279    .280E-01     .282E-03                                     
RMM:   3     -.248613834224E+02    -.23191E-03    -.16462E-03  8928    .309E-02     .174E-03                                     
RMM:   4     -.248613979202E+02    -.14498E-04    -.10965E-04  5418    .961E-03                                                  
   68 T=  3060. E= -.19719857E+02 F= -.24861398E+02 E0= -.24781140E+02  EK=  .51415E+01 SP=  .00E+00 SK=  .00E+00 mag=       .987
       N       E                     dE             d eps       ncg     rms          rms(c)                                      
DAV:   1     -.248565657253E+02     .48177E-02    -.12503E+00 15104    .984E+00     .909E-03                                     
RMM:   2     -.248614693473E+02    -.49036E-02    -.20922E-02 13508    .159E-01     .274E-03                                     
RMM:   3     -.248615547368E+02    -.85390E-04    -.26623E-04  9060    .158E-02     .175E-03                                     
RMM:   4     -.248615866019E+02    -.31865E-04    -.20599E-05  5645    .630E-03     .117E-03                                     
RMM:   5     -.248616097375E+02    -.23136E-04    -.51875E-06  5647    .487E-03                                                  
   69 T=  3060. E= -.19719859E+02 F= -.24861610E+02 E0= -.24781351E+02  EK=  .51418E+01 SP=  .00E+00 SK=  .00E+00 mag=       .986
       N       E                     dE             d eps       ncg     rms          rms(c)                                      
DAV:   1     -.248525989519E+02     .89876E-02    -.10323E+00 15008    .861E+00     .980E-03                                     
RMM:   2     -.248615710559E+02    -.89721E-02    -.61283E-02 13017    .209E-01     .248E-03                                     
RMM:   3     -.248617770510E+02    -.20600E-03    -.11765E-03  8785    .217E-02     .186E-03                                     
RMM:   4     -.248618184076E+02    -.41357E-04    -.95844E-05  5550    .828E-03     .136E-03                                     
RMM:   5     -.248618329839E+02    -.14576E-04    -.15986E-05  5473    .528E-03                                                  
   70 T=  3060. E= -.19719856E+02 F= -.24861833E+02 E0= -.24781573E+02  EK=  .51420E+01 SP=  .00E+00 SK=  .00E+00 mag=       .985
       N       E                     dE             d eps       ncg     rms          rms(c)                                      
DAV:   1     -.248576836433E+02     .41348E-02    -.89012E-01 14824    .887E+00     .888E-03                                     
RMM:   2     -.248619360300E+02    -.42524E-02    -.16056E-02 13329    .150E-01     .255E-03                                     
RMM:   3     -.248620564320E+02    -.12040E-03    -.26038E-04  8998    .210E-02     .151E-03                                     
RMM:   4     -.248620726273E+02    -.16195E-04    -.18032E-05  6049    .664E-03                                                  
   71 T=  3060. E= -.19719850E+02 F= -.24862073E+02 E0= -.24781811E+02  EK=  .51422E+01 SP=  .00E+00 SK=  .00E+00 mag=       .984
       N       E                     dE             d eps       ncg     rms          rms(c)                                      
DAV:   1     -.248590285392E+02     .30279E-02    -.17246E+00 14280    .967E+00     .909E-03                                     
RMM:   2     -.248622833549E+02    -.32548E-02    -.10874E-02 13091    .120E-01     .308E-03                                     
RMM:   3     -.248623261152E+02    -.42760E-04    -.12988E-04  8711    .118E-02     .210E-03                                     
RMM:   4     -.248623339589E+02    -.78437E-05    -.13466E-05  4901    .492E-03                                                  
   72 T=  3060. E= -.19719840E+02 F= -.24862334E+02 E0= -.24782071E+02  EK=  .51425E+01 SP=  .00E+00 SK=  .00E+00 mag=       .983
       N       E                     dE             d eps       ncg     rms          rms(c)                                      
DAV:   1     -.248595375683E+02     .27885E-02    -.96771E-01 14800    .103E+01     .867E-03                                     
RMM:   2     -.248625600351E+02    -.30225E-02    -.10976E-02 13537    .148E-01     .281E-03                                     
RMM:   3     -.248626001165E+02    -.40081E-04    -.16204E-04  9137    .149E-02     .146E-03                                     
RMM:   4     -.248626243725E+02    -.24256E-04    -.13082E-05  5961    .632E-03                                                  
   73 T=  3060. E= -.19719832E+02 F= -.24862624E+02 E0= -.24782360E+02  EK=  .51428E+01 SP=  .00E+00 SK=  .00E+00 mag=       .982
       N       E                     dE             d eps       ncg     rms          rms(c)                                      
DAV:   1     -.248609774149E+02     .16227E-02    -.27608E+00 13816    .105E+01     .838E-03                                     
RMM:   2     -.248628950565E+02    -.19176E-02    -.36685E-03 13170    .935E-02     .246E-03                                     
RMM:   3     -.248629188863E+02    -.23830E-04    -.43664E-05  8738    .102E-02                                                  
   74 T=  3061. E= -.19719800E+02 F= -.24862919E+02 E0= -.24782654E+02  EK=  .51431E+01 SP=  .00E+00 SK=  .00E+00 mag=       .981
       N       E                     dE             d eps       ncg     rms          rms(c)                                      
DAV:   1     -.248606207161E+02     .22743E-02    -.18940E+00 14464    .904E+00     .885E-03                                     
RMM:   2     -.248631828823E+02    -.25622E-02    -.98732E-03 13058    .118E-01     .286E-03                                     
RMM:   3     -.248632787679E+02    -.95886E-04    -.17822E-04  9645    .151E-02     .158E-03                                     
RMM:   4     -.248633047191E+02    -.25951E-04    -.21024E-05  6412    .721E-03                                                  
   75 T=  3061. E= -.19719827E+02 F= -.24863305E+02 E0= -.24783038E+02  EK=  .51435E+01 SP=  .00E+00 SK=  .00E+00 mag=       .980
       N       E                     dE             d eps       ncg     rms          rms(c)                                      
DAV:   1     -.248627237972E+02     .55497E-03    -.14868E+00 13424    .881E+00     .798E-03                                     
RMM:   2     -.248636579306E+02    -.93413E-03    -.11498E-03 12581    .562E-02     .227E-03                                     
RMM:   3     -.248636813127E+02    -.23382E-04    -.17707E-05  8452    .831E-03                                                  
   76 T=  3061. E= -.19719805E+02 F= -.24863681E+02 E0= -.24783413E+02  EK=  .51439E+01 SP=  .00E+00 SK=  .00E+00 mag=       .978
       N       E                     dE             d eps       ncg     rms          rms(c)                                      
DAV:   1     -.248619165542E+02     .17414E-02    -.22055E+00 13280    .103E+01     .821E-03                                     
RMM:   2     -.248640458283E+02    -.21293E-02    -.15799E-02 12286    .890E-02     .231E-03                                     
RMM:   3     -.248641261634E+02    -.80335E-04    -.40361E-04  8818    .136E-02     .146E-03                                     
[...]
RMM:   3     -.249135124318E+02    -.43863E-02    -.21961E-05  7137    .681E-03     .315E-03                                     
RMM:   4     -.249145031641E+02    -.99073E-03    -.34967E-06  5449    .452E-03     .213E-03                                     
RMM:   5     -.249145476205E+02    -.44456E-04    -.45069E-06  5199    .503E-03     .109E-03                                     
RMM:   6     -.249146225691E+02    -.74949E-04    -.17589E-07  2617    .247E-03     .456E-04                                     
RMM:   7     -.249146614988E+02    -.38930E-04    -.55891E-08  2222    .236E-03     .315E-04                                     
RMM:   8     -.249147077197E+02    -.46221E-04    -.25923E-07  2831    .264E-03     .510E-05                                     
RMM:   9     -.249147101797E+02    -.24600E-05    -.67702E-08  1927    .246E-03                                                  
 1064 T=  3097. E= -.19710244E+02 F= -.24914710E+02 E0= -.24833528E+02  EK=  .52045E+01 SP=  .00E+00 SK=  .00E+00 mag=      1.000
       N       E                     dE             d eps       ncg     rms          rms(c)                                      
DAV:   1     -.249070790231E+02     .76287E-02    -.65352E-01 11096    .680E+00     .820E-03                                     
RMM:   2     -.249090965851E+02    -.20176E-02    -.13097E-04 10732    .198E-02     .564E-03                                     
RMM:   3     -.249144311885E+02    -.53346E-02    -.96522E-06  7514    .646E-03     .188E-03                                     
RMM:   4     -.249144717234E+02    -.40535E-04    -.38886E-06  5004    .472E-03     .177E-03                                     
RMM:   5     -.249144701429E+02     .15806E-05    -.17745E-07  2560    .249E-03                                                  
 1065 T=  3097. E= -.19710109E+02 F= -.24914470E+02 E0= -.24833287E+02  EK=  .52044E+01 SP=  .00E+00 SK=  .00E+00 mag=      1.000
       N       E                     dE             d eps       ncg     rms          rms(c)                                      
DAV:   1     -.249066312255E+02     .78405E-02    -.54581E-01 11760    .513E+00     .834E-03                                     
RMM:   2     -.249092074211E+02    -.25762E-02    -.62910E-03 10387    .607E-02     .575E-03                                     
RMM:   3     -.249107443173E+02    -.15369E-02    -.14390E-04  7355    .108E-02     .485E-03                                     
RMM:   4     -.249133711646E+02    -.26268E-02    -.15315E-05  6023    .585E-03     .251E-03                                     
RMM:   5     -.249139691775E+02    -.59801E-03    -.21060E-06  3957    .363E-03     .188E-03                                     
RMM:   6     -.249144255182E+02    -.45634E-03    -.47705E-06  5158    .500E-03     .357E-04                                     
RMM:   7     -.249144287095E+02    -.31913E-05    -.16725E-07  2403    .261E-03                                                  
 1066 T=  3097. E= -.19710172E+02 F= -.24914429E+02 E0= -.24833246E+02  EK=  .52043E+01 SP=  .00E+00 SK=  .00E+00 mag=      1.000
       N       E                     dE             d eps       ncg     rms          rms(c)                                      
DAV:   1     -.249066880798E+02     .77374E-02    -.32774E-01 10920    .591E+00     .819E-03                                     
RMM:   2     -.249087483633E+02    -.20603E-02    -.13288E-04 10464    .182E-02     .573E-03                                     
RMM:   3     -.249106030274E+02    -.18547E-02    -.51514E-06  7443    .542E-03     .488E-03                                     
RMM:   4     -.249142139221E+02    -.36109E-02    -.62230E-06  6877    .542E-03     .320E-03                                     
RMM:   5     -.249140702439E+02     .14368E-03    -.52259E-06  5421    .515E-03     .763E-04                                     
RMM:   6     -.249142916195E+02    -.22138E-03    -.37713E-07  2912    .264E-03     .444E-04                                     
RMM:   7     -.249143415136E+02    -.49894E-04    -.10603E-07  2450    .248E-03     .228E-04                                     
RMM:   8     -.249143833917E+02    -.41878E-04    -.20293E-07  2837    .267E-03     .279E-05                                     
RMM:   9     -.249143901766E+02    -.67850E-05    -.11466E-07  2107    .260E-03                                                  
 1067 T=  3097. E= -.19710239E+02 F= -.24914390E+02 E0= -.24833207E+02  EK=  .52042E+01 SP=  .00E+00 SK=  .00E+00 mag=      1.000
       N       E                     dE             d eps       ncg     rms          rms(c)                                      
DAV:   1     -.249067057237E+02     .76777E-02    -.81805E-01 11064    .673E+00     .819E-03                                     
RMM:   2     -.249088032172E+02    -.20975E-02    -.10125E-03 10711    .335E-02     .567E-03                                     
RMM:   3     -.249133926566E+02    -.45894E-02    -.25764E-05  7259    .746E-03     .181E-03                                     
RMM:   4     -.249142359778E+02    -.84332E-03    -.74788E-06  5933    .582E-03     .178E-03                                     
RMM:   5     -.249141323563E+02     .10362E-03    -.73453E-07  3311    .322E-03     .115E-03                                     
RMM:   6     -.249141740358E+02    -.41679E-04    -.89329E-08  2302    .244E-03     .397E-04                                     
RMM:   7     -.249142094420E+02    -.35406E-04    -.30760E-08  2131    .236E-03     .238E-04                                     
RMM:   8     -.249142681659E+02    -.58724E-04    -.18007E-07  2631    .251E-03     .701E-05                                     
RMM:   9     -.249142809345E+02    -.12769E-04    -.13149E-07  2192    .249E-03                                                  
 1068 T=  3097. E= -.19710235E+02 F= -.24914281E+02 E0= -.24833097E+02  EK=  .52040E+01 SP=  .00E+00 SK=  .00E+00 mag=      1.000
       N       E                     dE             d eps       ncg     rms          rms(c)                                      
DAV:   1     -.249066465412E+02     .76216E-02    -.53921E-01 10960    .773E+00     .819E-03                                     
RMM:   2     -.249086901538E+02    -.20436E-02    -.47431E-04 11088    .292E-02     .564E-03                                     
RMM:   3     -.249138415938E+02    -.51514E-02    -.12734E-05  7687    .715E-03     .873E-04                                     
RMM:   4     -.249140626260E+02    -.22103E-03    -.50838E-06  5333    .522E-03     .928E-04                                     
RMM:   5     -.249140614118E+02     .12142E-05    -.24653E-07  2663    .258E-03                                                  
 1069 T=  3097. E= -.19710121E+02 F= -.24914061E+02 E0= -.24832877E+02  EK=  .52039E+01 SP=  .00E+00 SK=  .00E+00 mag=      1.000
       N       E                     dE             d eps       ncg     rms          rms(c)                                      
DAV:   1     -.249061413456E+02     .79213E-02    -.65316E-01 11240    .735E+00     .828E-03                                     
RMM:   2     -.249087960149E+02    -.26547E-02    -.71677E-03 10755    .595E-02     .605E-03                                     
RMM:   3     -.249092776542E+02    -.48164E-03    -.15651E-04  7640    .102E-02     .585E-03                                     
RMM:   4     -.249131629393E+02    -.38853E-02    -.14616E-05  5872    .589E-03     .167E-03                                     
RMM:   5     -.249140164814E+02    -.85354E-03    -.34907E-06  5321    .446E-03     .135E-03                                     
RMM:   6     -.249139474941E+02     .68987E-04    -.22454E-06  4264    .414E-03     .334E-04                                     
RMM:   7     -.249140036897E+02    -.56196E-04    -.12147E-07  2357    .249E-03     .161E-04                                     
RMM:   8     -.249140639999E+02    -.60310E-04    -.24472E-07  2681    .266E-03     .435E-05                                     
RMM:   9     -.249140689934E+02    -.49935E-05    -.82803E-08  2014    .256E-03                                                  
 1070 T=  3097. E= -.19710234E+02 F= -.24914069E+02 E0= -.24832884E+02  EK=  .52038E+01 SP=  .00E+00 SK=  .00E+00 mag=      1.000
       N       E                     dE             d eps       ncg     rms          rms(c)                                      
DAV:   1     -.249059018996E+02     .81621E-02    -.67433E-01 11360    .702E+00     .822E-03                                     
RMM:   2     -.249082427618E+02    -.23409E-02    -.27238E-03 10686    .339E-02     .596E-03                                     
RMM:   3     -.249088622344E+02    -.61947E-03    -.56079E-05  7123    .726E-03     .595E-03                                     
RMM:   4     -.249131151765E+02    -.42529E-02    -.70921E-06  6339    .521E-03     .206E-03                                     
RMM:   5     -.249139513598E+02    -.83618E-03    -.50308E-06  5800    .511E-03     .103E-03                                     
RMM:   6     -.249139378134E+02     .13546E-04    -.23855E-07  2639    .276E-03                                                  
 1071 T=  3097. E= -.19710208E+02 F= -.24913938E+02 E0= -.24832752E+02  EK=  .52037E+01 SP=  .00E+00 SK=  .00E+00 mag=      1.000
       N       E                     dE             d eps       ncg     rms          rms(c)                                      
DAV:   1     -.248929463517E+02     .21005E-01    -.14906E+00 11216    .760E+00     .104E-02                                     
RMM:   2     -.249085231042E+02    -.15577E-01    -.13526E-01 11030    .152E-01     .632E-03                                     
RMM:   3     -.249094581916E+02    -.93509E-03    -.34365E-03  8772    .258E-02     .774E-03                                     
RMM:   4     -.249101276954E+02    -.66950E-03    -.35623E-04  5463    .101E-02     .438E-03                                     
RMM:   5     -.249113204050E+02    -.11927E-02    -.32311E-05  5529    .503E-03     .362E-03                                     
RMM:   6     -.249128603573E+02    -.15400E-02    -.29054E-06  4692    .384E-03     .132E-03                                     
RMM:   7     -.249138219595E+02    -.96160E-03    -.28134E-06  5297    .426E-03     .508E-04                                     
RMM:   8     -.249138346372E+02    -.12678E-04    -.10915E-06  3561    .341E-03                                                  
 1072 T=  3097. E= -.19710210E+02 F= -.24913835E+02 E0= -.24832649E+02  EK=  .52036E+01 SP=  .00E+00 SK=  .00E+00 mag=      1.000
       N       E                     dE             d eps       ncg     rms          rms(c)                                      
DAV:   1     -.249062318932E+02     .75901E-02    -.42832E-01 11176    .675E+00     .801E-03                                     
RMM:   2     -.249082676593E+02    -.20358E-02    -.39290E-04 10722    .229E-02     .557E-03                                     
RMM:   3     -.249128703373E+02    -.46027E-02    -.10606E-05  7236    .611E-03     .203E-03                                     
RMM:   4     -.249136628823E+02    -.79255E-03    -.26938E-06  5514    .434E-03     .261E-03                                     
RMM:   5     -.249135899642E+02     .72918E-04    -.27659E-06  4529    .425E-03     .732E-04                                     
RMM:   6     -.249136316491E+02    -.41685E-04    -.10106E-07  2380    .241E-03     .454E-04                                     
RMM:   7     -.249136815651E+02    -.49916E-04    -.44014E-08  2267    .234E-03     .327E-04                                     
RMM:   8     -.249137411065E+02    -.59541E-04    -.23272E-07  2834    .259E-03     .551E-05                                     
RMM:   9     -.249137494662E+02    -.83598E-05    -.12725E-07  2127    .254E-03                                                  
 1073 T=  3097. E= -.19710230E+02 F= -.24913749E+02 E0= -.24832563E+02  EK=  .52035E+01 SP=  .00E+00 SK=  .00E+00 mag=      1.000
       N       E                     dE             d eps       ncg     rms          rms(c)                                      
DAV:   1     -.249058443782E+02     .78967E-02    -.19286E+00 11416    .786E+00     .829E-03                                     
RMM:   2     -.249081109507E+02    -.22666E-02    -.25636E-03 10770    .373E-02     .568E-03                                     
RMM:   3     -.249118985100E+02    -.37876E-02    -.50781E-05  6540    .735E-03     .229E-03                                     
RMM:   4     -.249128699181E+02    -.97141E-03    -.45892E-06  5337    .444E-03     .331E-03                                     
RMM:   5     -.249136334731E+02    -.76356E-03    -.41083E-06  5082    .460E-03     .777E-04                                     
RMM:   6     -.249135951209E+02     .38352E-04    -.44740E-07  3021    .296E-03     .400E-04                                     
RMM:   7     -.249135956306E+02    -.50964E-06    -.48613E-08  2035    .253E-03                                                  
 1074 T=  3097. E= -.19710182E+02 F= -.24913596E+02 E0= -.24832409E+02  EK=  .52034E+01 SP=  .00E+00 SK=  .00E+00 mag=      1.000
       N       E                     dE             d eps       ncg     rms          rms(c)                                      
DAV:   1     -.249023143830E+02     .11281E-01    -.10284E+00 12336    .824E+00     .862E-03                                     
RMM:   2     -.249080105801E+02    -.56962E-02    -.37094E-02 11534    .157E-01     .573E-03                                     
RMM:   3     -.249101520425E+02    -.21415E-02    -.52365E-04  6827    .177E-02     .368E-03                                     
RMM:   4     -.249114496895E+02    -.12976E-02    -.49981E-05  6291    .738E-03     .415E-03                                     
RMM:   5     -.249129814433E+02    -.15318E-02    -.61401E-06  5395    .436E-03     .189E-03                                     
RMM:   6     -.249134546664E+02    -.47322E-03    -.12937E-06  4085    .355E-03     .520E-04                                     
RMM:   7     -.249135081153E+02    -.53449E-04    -.14645E-06  4122    .385E-03     .303E-04                                     
RMM:   8     -.249135040943E+02     .40210E-05    -.66641E-08  2300    .251E-03                                                  
 1075 T=  3096. E= -.19710196E+02 F= -.24913504E+02 E0= -.24832317E+02  EK=  .52033E+01 SP=  .00E+00 SK=  .00E+00 mag=      1.000
       N       E                     dE             d eps       ncg     rms          rms(c)                                      
DAV:   1     -.249016334794E+02     .11875E-01    -.53955E-01 12576    .647E+00     .871E-03                                     
RMM:   2     -.249076655025E+02    -.60320E-02    -.40084E-02 11027    .128E-01     .576E-03                                     
RMM:   3     -.249095954704E+02    -.19300E-02    -.21827E-03  7425    .201E-02     .495E-03                                     
RMM:   4     -.249104399751E+02    -.84450E-03    -.92464E-05  4531    .724E-03     .360E-03                                     
RMM:   5     -.249118772384E+02    -.14373E-02    -.18159E-05  5320    .436E-03     .273E-03                                     
RMM:   6     -.249131465517E+02    -.12693E-02    -.23054E-06  4577    .380E-03     .581E-04                                     
RMM:   7     -.249134147523E+02    -.26820E-03    -.26289E-06  4665    .430E-03     .298E-04                                     
RMM:   8     -.249134100167E+02     .47356E-05    -.13717E-07  2397    .264E-03                                                  
 1076 T=  3096. E= -.19710207E+02 F= -.24913410E+02 E0= -.24832222E+02  EK=  .52032E+01 SP=  .00E+00 SK=  .00E+00 mag=      1.000
       N       E                     dE             d eps       ncg     rms          rms(c)                                      
DAV:   1     -.249050375973E+02     .83772E-02    -.79264E-01 11624    .676E+00     .854E-03                                     
RMM:   2     -.249078094518E+02    -.27719E-02    -.77207E-03 10714    .538E-02     .573E-03                                     
RMM:   3     -.249099408500E+02    -.21314E-02    -.15740E-04  6149    .918E-03     .384E-03                                     
RMM:   4     -.249108363865E+02    -.89554E-03    -.11790E-05  4392    .467E-03     .392E-03                                     
RMM:   5     -.249131742421E+02    -.23379E-02    -.41723E-06  5471    .460E-03     .562E-04                                     
RMM:   6     -.249132993053E+02    -.12506E-03    -.20097E-06  4370    .401E-03     .365E-04                                     
RMM:   7     -.249132948745E+02     .44307E-05    -.81777E-08  2041    .249E-03                                                  
 1077 T=  3096. E= -.19710196E+02 F= -.24913295E+02 E0= -.24832107E+02  EK=  .52031E+01 SP=  .00E+00 SK=  .00E+00 mag=      1.000
       N       E                     dE             d eps       ncg     rms          rms(c)                                      
DAV:   1     -.249053907758E+02     .79085E-02    -.78574E-01 11392    .776E+00     .823E-03                                     
RMM:   2     -.249077734654E+02    -.23827E-02    -.39908E-03 11210    .438E-02     .567E-03                                     
RMM:   3     -.249114906547E+02    -.37172E-02    -.64445E-05  7573    .815E-03     .324E-03                                     
RMM:   4     -.249127754364E+02    -.12848E-02    -.77553E-06  5816    .488E-03     .244E-03                                     
RMM:   5     -.249131762759E+02    -.40084E-03    -.39032E-06  5455    .485E-03     .136E-03                                     
RMM:   6     -.249131086871E+02     .67589E-04    -.33862E-07  2793    .276E-03     .403E-04                                     
RMM:   7     -.249131538934E+02    -.45206E-04    -.49719E-08  2340    .239E-03     .215E-04                                     
RMM:   8     -.249132144069E+02    -.60514E-04    -.24462E-07  2716    .250E-03     .534E-05                                     
RMM:   9     -.249132170736E+02    -.26667E-05    -.55628E-08  1925    .236E-03                                                  
 1078 T=  3096. E= -.19710223E+02 F= -.24913217E+02 E0= -.24832029E+02  EK=  .52030E+01 SP=  .00E+00 SK=  .00E+00 mag=      1.000
       N       E                     dE             d eps       ncg     rms          rms(c)                                      
DAV:   1     -.248941571207E+02     .19057E-01    -.11526E+00 11352    .705E+00     .143E-02                                     
RMM:   2     -.249074735097E+02    -.13316E-01    -.10931E-01 11036    .145E-01     .671E-03                                     
RMM:   3     -.249090394080E+02    -.15659E-02    -.43080E-03  7366    .265E-02     .569E-03                                     
RMM:   4     -.249093740957E+02    -.33469E-03    -.19574E-04  3689    .791E-03     .504E-03                                     
RMM:   5     -.249103563739E+02    -.98228E-03    -.25843E-05  4316    .458E-03     .389E-03                                     
RMM:   6     -.249116260149E+02    -.12696E-02    -.13982E-06  3951    .345E-03     .201E-03                                     
RMM:   7     -.249130211042E+02    -.13951E-02    -.31047E-06  6395    .468E-03     .534E-04                                     
RMM:   8     -.249130924046E+02    -.71300E-04    -.42232E-07  3049    .273E-03     .345E-04                                     
RMM:   9     -.249130991920E+02    -.67874E-05    -.53608E-07  3329    .297E-03                                                  
 1079 T=  3096. E= -.19710211E+02 F= -.24913099E+02 E0= -.24831911E+02  EK=  .52029E+01 SP=  .00E+00 SK=  .00E+00 mag=      1.000
