       N       E                     dE             d eps       ncg     rms          rms(c)                                      
DAV:   1      .111090345319E+04     .11109E+04    -.62861E+04 16320    .996E+02                                                  
DAV:   2      .171333704146E+02    -.10938E+04    -.10374E+04 16912    .279E+02                                                  
DAV:   3     -.254554517493E+02    -.42589E+02    -.42037E+02 18024    .671E+01                                                  
DAV:   4     -.258297169075E+02    -.37427E+00    -.37374E+00 18088    .605E+00                                                  
DAV:   5     -.258341175631E+02    -.44007E-02    -.44005E-02 18168    .560E-01     .167E+01                                     
RMM:   6     -.243277461587E+02     .15064E+01    -.57705E+00 16320    .812E+00     .106E+01                                     
RMM:   7     -.300921015066E+02    -.57644E+01    -.12010E+01 16366    .705E+00     .871E+00                                     
RMM:   8     -.250427390847E+02     .50494E+01    -.91474E+00 16421    .570E+00     .423E+00                                     
RMM:   9     -.277015330147E+02    -.26588E+01    -.16038E+00 16382    .245E+00     .435E+00                                     
RMM:  10     -.249153187233E+02     .27862E+01    -.11287E+00 16431    .189E+00     .544E-01                                     
RMM:  11     -.249042265354E+02     .11092E-01    -.27747E-02 16402    .391E-01     .145E-01                                     
RMM:  12     -.249040472477E+02     .17929E-03    -.14898E-03 16411    .950E-02     .865E-02                                     
RMM:  13     -.249047684574E+02    -.72121E-03    -.38454E-04 16301    .497E-02     .430E-02                                     
RMM:  14     -.249052393059E+02    -.47085E-03    -.83838E-05 10948    .242E-02     .157E-02                                     
RMM:  15     -.249053215590E+02    -.82253E-04    -.13256E-05  9650    .108E-02     .815E-03                                     
RMM:  16     -.249053385268E+02    -.16968E-04    -.63257E-06  9462    .696E-03                                                  
    1 T=  3043. E= -.19792332E+02 F= -.24905339E+02 E0= -.24824957E+02  EK=  .51130E+01 SP=  .00E+00 SK=  .00E+00 mag=      1.000
       N       E                     dE             d eps       ncg     rms          rms(c)                                      
DAV:   1     -.244498121856E+02     .45551E+00    -.15483E-01 17152    .149E-01     .301E-01                                     
RMM:   2     -.245893735316E+02    -.13956E+00    -.92962E-04 10959    .362E-02     .217E-01                                     
RMM:   3     -.248822343415E+02    -.29286E+00    -.13650E-03 11719    .423E-02     .220E-02                                     
RMM:   4     -.249012332636E+02    -.18999E-01    -.25765E-05  9922    .107E-02     .122E-02                                     
RMM:   5     -.249050459992E+02    -.38127E-02    -.13140E-05  6971    .562E-03     .242E-03                                     
RMM:   6     -.249047260855E+02     .31991E-03    -.17562E-06  4432    .342E-03     .977E-04                                     
RMM:   7     -.249051784399E+02    -.45235E-03    -.11902E-05  4093    .429E-03     .227E-04                                     
RMM:   8     -.249051601049E+02     .18335E-04    -.27226E-06  3352    .319E-03                                                  
    2 T=  3043. E= -.19792312E+02 F= -.24905160E+02 E0= -.24824778E+02  EK=  .51128E+01 SP=  .00E+00 SK=  .00E+00 mag=      1.000
       N       E                     dE             d eps       ncg     rms          rms(c)                                      
DAV:   1     -.248473739491E+02     .57804E-01    -.27498E+00 12464    .539E+00     .417E-02                                     
RMM:   2     -.248675240984E+02    -.20150E-01    -.49104E-02 12130    .159E-01     .276E-02                                     
RMM:   3     -.249019220016E+02    -.34398E-01    -.11284E-03 11328    .335E-02     .170E-02                                     
RMM:   4     -.249044289684E+02    -.25070E-02    -.94276E-05  9948    .125E-02     .250E-03                                     
RMM:   5     -.249043926530E+02     .36315E-04    -.34118E-05  6506    .613E-03     .140E-03                                     
RMM:   6     -.249048501917E+02    -.45754E-03    -.93576E-06  5395    .449E-03     .456E-04                                     
RMM:   7     -.249049786177E+02    -.12843E-03    -.40057E-06  3880    .351E-03     .213E-04                                     
RMM:   8     -.249050059114E+02    -.27294E-04    -.16422E-06  3504    .299E-03                                                  
    3 T=  3043. E= -.19792315E+02 F= -.24905006E+02 E0= -.24824625E+02  EK=  .51127E+01 SP=  .00E+00 SK=  .00E+00 mag=      1.000
       N       E                     dE             d eps       ncg     rms          rms(c)                                      
DAV:   1     -.248931190938E+02     .11860E-01    -.33875E+00 13768    .103E+01     .925E-03                                     
RMM:   2     -.249007218780E+02    -.76028E-02    -.42480E-02 12819    .149E-01     .482E-03                                     
RMM:   3     -.249019153586E+02    -.11935E-02    -.71760E-04  9413    .207E-02     .323E-03                                     
RMM:   4     -.249030169652E+02    -.11016E-02    -.79837E-05  6345    .797E-03     .208E-03                                     
RMM:   5     -.249047268710E+02    -.17099E-02    -.10435E-05  6917    .574E-03     .584E-04                                     
RMM:   6     -.249048536563E+02    -.12679E-03    -.29205E-06  4937    .420E-03     .309E-04                                     
RMM:   7     -.249048635718E+02    -.99155E-05    -.13116E-06  3763    .344E-03                                                  
    4 T=  3042. E= -.19792328E+02 F= -.24904864E+02 E0= -.24824483E+02  EK=  .51125E+01 SP=  .00E+00 SK=  .00E+00 mag=      1.000
       N       E                     dE             d eps       ncg     rms          rms(c)                                      
DAV:   1     -.248969749527E+02     .78787E-02    -.20605E+00 12208    .817E+00     .821E-03                                     
RMM:   2     -.249034198736E+02    -.64449E-02    -.27953E-03 11364    .562E-02     .303E-03                                     
RMM:   3     -.249038140260E+02    -.39415E-03    -.73415E-05  8404    .112E-02     .228E-03                                     
RMM:   4     -.249042713210E+02    -.45729E-03    -.86893E-06  5470    .520E-03     .102E-03                                     
RMM:   5     -.249047000087E+02    -.42869E-03    -.92412E-06  5773    .533E-03     .278E-04                                     
RMM:   6     -.249046826451E+02     .17364E-04    -.66061E-06  4837    .468E-03                                                  
    5 T=  3042. E= -.19792298E+02 F= -.24904683E+02 E0= -.24824302E+02  EK=  .51124E+01 SP=  .00E+00 SK=  .00E+00 mag=      1.000
       N       E                     dE             d eps       ncg     rms          rms(c)                                      
DAV:   1     -.248935273957E+02     .11173E-01    -.92286E-01 12008    .847E+00     .840E-03                                     
RMM:   2     -.249032922637E+02    -.97649E-02    -.33215E-02 11576    .115E-01     .282E-03                                     
RMM:   3     -.249038537413E+02    -.56148E-03    -.20176E-03  8980    .174E-02     .139E-03                                     
RMM:   4     -.249040334685E+02    -.17973E-03    -.67348E-05  4989    .584E-03     .104E-03                                     
RMM:   5     -.249043708126E+02    -.33734E-03    -.67521E-06  4693    .379E-03     .452E-04                                     
RMM:   6     -.249044818764E+02    -.11106E-03    -.81098E-07  3840    .320E-03     .169E-04                                     
RMM:   7     -.249045120715E+02    -.30195E-04    -.18082E-07  2621    .270E-03     .893E-05                                     
RMM:   8     -.249045574474E+02    -.45376E-04    -.95819E-07  3497    .312E-03     .629E-05                                     
RMM:   9     -.249045709757E+02    -.13528E-04    -.96503E-08  2115    .262E-03                                                  
    6 T=  3042. E= -.19792334E+02 F= -.24904571E+02 E0= -.24824190E+02  EK=  .51122E+01 SP=  .00E+00 SK=  .00E+00 mag=      1.000
       N       E                     dE             d eps       ncg     rms          rms(c)                                      
DAV:   1     -.248962675276E+02     .82899E-02    -.25133E+00 11944    .100E+01     .808E-03                                     
RMM:   2     -.249035089841E+02    -.72415E-02    -.69260E-03 11825    .701E-02     .243E-03                                     
RMM:   3     -.249038552831E+02    -.34630E-03    -.13517E-04  8822    .118E-02     .145E-03                                     
RMM:   4     -.249042644707E+02    -.40919E-03    -.95093E-06  5149    .523E-03     .703E-04                                     
RMM:   5     -.249043632590E+02    -.98788E-04    -.54534E-06  5464    .478E-03     .173E-04                                     
RMM:   6     -.249044028612E+02    -.39602E-04    -.11567E-06  3186    .313E-03     .874E-05                                     
RMM:   7     -.249044143459E+02    -.11485E-04    -.80765E-07  2759    .284E-03                                                  
    7 T=  3042. E= -.19792323E+02 F= -.24904414E+02 E0= -.24824034E+02  EK=  .51121E+01 SP=  .00E+00 SK=  .00E+00 mag=      1.000
       N       E                     dE             d eps       ncg     rms          rms(c)                                      
DAV:   1     -.248944723006E+02     .99306E-02    -.12636E+00 12584    .997E+00     .819E-03                                     
RMM:   2     -.249030245887E+02    -.85523E-02    -.22780E-02 11687    .133E-01     .297E-03                                     
RMM:   3     -.249038771668E+02    -.85258E-03    -.62436E-04 10035    .219E-02     .144E-03                                     
RMM:   4     -.249039482936E+02    -.71127E-04    -.44004E-05  5414    .763E-03     .108E-03                                     
RMM:   5     -.249042004306E+02    -.25214E-03    -.51746E-06  4405    .401E-03     .478E-04                                     
RMM:   6     -.249042539872E+02    -.53557E-04    -.43008E-06  4812    .427E-03     .171E-04                                     
RMM:   7     -.249042733952E+02    -.19408E-04    -.62681E-07  2798    .293E-03                                                  
    8 T=  3042. E= -.19792326E+02 F= -.24904273E+02 E0= -.24823894E+02  EK=  .51119E+01 SP=  .00E+00 SK=  .00E+00 mag=      1.000
       N       E                     dE             d eps       ncg     rms          rms(c)                                      
DAV:   1     -.248955042514E+02     .87497E-02    -.12752E+00 11408    .879E+00     .797E-03                                     
RMM:   2     -.249029567401E+02    -.74525E-02    -.11412E-02 11438    .640E-02     .276E-03                                     
RMM:   3     -.249034408968E+02    -.48416E-03    -.34316E-04  8107    .122E-02     .160E-03                                     
RMM:   4     -.249036921369E+02    -.25124E-03    -.41189E-05  5428    .582E-03     .699E-04                                     
RMM:   5     -.249040684469E+02    -.37631E-03    -.89913E-06  5157    .460E-03     .375E-04                                     
RMM:   6     -.249041209204E+02    -.52473E-04    -.12040E-06  3799    .319E-03     .142E-04                                     
RMM:   7     -.249041240916E+02    -.31713E-05    -.53945E-07  3071    .281E-03                                                  
    9 T=  3042. E= -.19792318E+02 F= -.24904124E+02 E0= -.24823745E+02  EK=  .51118E+01 SP=  .00E+00 SK=  .00E+00 mag=      1.000
       N       E                     dE             d eps       ncg     rms          rms(c)                                      
DAV:   1     -.248953343055E+02     .87866E-02    -.10335E+00 11776    .891E+00     .824E-03                                     
RMM:   2     -.249031868181E+02    -.78525E-02    -.11695E-02 10801    .686E-02     .313E-03                                     
RMM:   3     -.249035686752E+02    -.38186E-03    -.13675E-04  9083    .114E-02     .138E-03                                     
RMM:   4     -.249037209904E+02    -.15232E-03    -.97188E-06  4887    .454E-03     .823E-04                                     
RMM:   5     -.249038870775E+02    -.16609E-03    -.11834E-06  3854    .319E-03     .360E-04                                     
RMM:   6     -.249039618127E+02    -.74735E-04    -.62771E-07  3438    .299E-03     .132E-04                                     
RMM:   7     -.249039938053E+02    -.31993E-04    -.10299E-06  3481    .334E-03     .633E-05                                     
RMM:   8     -.249039983632E+02    -.45579E-05    -.33117E-07  2656    .285E-03                                                  
   10 T=  3042. E= -.19792331E+02 F= -.24903998E+02 E0= -.24823619E+02  EK=  .51117E+01 SP=  .00E+00 SK=  .00E+00 mag=      1.000
       N       E                     dE             d eps       ncg     rms          rms(c)                                      
DAV:   1     -.248942034239E+02     .97904E-02    -.23227E+00 11464    .102E+01     .831E-03                                     
RMM:   2     -.249029993361E+02    -.87959E-02    -.21976E-02 11287    .857E-02     .299E-03                                     
RMM:   3     -.249034387458E+02    -.43941E-03    -.21623E-04  9076    .133E-02     .140E-03                                     
RMM:   4     -.249035987088E+02    -.15996E-03    -.12619E-05  4984    .470E-03     .117E-03                                     
RMM:   5     -.249038146005E+02    -.21589E-03    -.31385E-06  4756    .397E-03     .429E-04                                     
RMM:   6     -.249038396828E+02    -.25082E-04    -.92803E-07  3529    .317E-03                                                  
   11 T=  3042. E= -.19792309E+02 F= -.24903840E+02 E0= -.24823461E+02  EK=  .51115E+01 SP=  .00E+00 SK=  .00E+00 mag=      1.000
       N       E                     dE             d eps       ncg     rms          rms(c)                                      
DAV:   1     -.248721333857E+02     .31681E-01    -.32887E+00 12736    .963E+00     .102E-02                                     
RMM:   2     -.249038498218E+02    -.31716E-01    -.24199E-01 11729    .254E-01     .504E-03                                     
RMM:   3     -.249034750099E+02     .37481E-03    -.56011E-03 10246    .417E-02     .263E-03                                     
RMM:   4     -.249035794487E+02    -.10444E-03    -.25044E-04  4853    .102E-02     .208E-03                                     
RMM:   5     -.249036631553E+02    -.83707E-04    -.21727E-05  3941    .431E-03     .154E-03                                     
RMM:   6     -.249037026837E+02    -.39528E-04    -.25497E-06  4208    .370E-03     .630E-04                                     
RMM:   7     -.249037294122E+02    -.26729E-04    -.26074E-06  4862    .413E-03                                                  
   12 T=  3042. E= -.19792333E+02 F= -.24903729E+02 E0= -.24823351E+02  EK=  .51114E+01 SP=  .00E+00 SK=  .00E+00 mag=      1.000
       N       E                     dE             d eps       ncg     rms          rms(c)                                      
DAV:   1     -.248936780207E+02     .10025E-01    -.25564E+00 12480    .830E+00     .818E-03                                     
RMM:   2     -.249022892182E+02    -.86112E-02    -.25599E-02 11511    .982E-02     .240E-03                                     
RMM:   3     -.249027004598E+02    -.41124E-03    -.63205E-04  8594    .173E-02     .175E-03                                     
RMM:   4     -.249030784165E+02    -.37796E-03    -.51227E-05  5003    .663E-03     .104E-03                                     
RMM:   5     -.249034167459E+02    -.33833E-03    -.92791E-06  5771    .521E-03     .416E-04                                     
RMM:   6     -.249035151469E+02    -.98401E-04    -.13451E-06  3657    .358E-03     .198E-04                                     
RMM:   7     -.249035665918E+02    -.51445E-04    -.54829E-07  3041    .307E-03     .113E-04                                     
RMM:   8     -.249035884764E+02    -.21885E-04    -.26401E-07  2629    .285E-03                                                  
   13 T=  3042. E= -.19792323E+02 F= -.24903588E+02 E0= -.24823210E+02  EK=  .51113E+01 SP=  .00E+00 SK=  .00E+00 mag=      1.000
       N       E                     dE             d eps       ncg     rms          rms(c)                                      
DAV:   1     -.248951103265E+02     .84563E-02    -.14541E+00 12368    .935E+00     .806E-03                                     
RMM:   2     -.249017515897E+02    -.66413E-02    -.74547E-03 11571    .797E-02     .326E-03                                     
RMM:   3     -.249020490000E+02    -.29741E-03    -.20323E-04  9333    .162E-02     .207E-03                                     
RMM:   4     -.249025273719E+02    -.47837E-03    -.20822E-05  5442    .636E-03     .136E-03                                     
RMM:   5     -.249033427715E+02    -.81540E-03    -.63390E-06  5819    .471E-03     .475E-04                                     
RMM:   6     -.249034232405E+02    -.80469E-04    -.18681E-06  4066    .349E-03     .170E-04                                     
RMM:   7     -.249034587330E+02    -.35492E-04    -.29594E-06  4236    .372E-03     .913E-05                                     
RMM:   8     -.249034613303E+02    -.25973E-05    -.11951E-07  2068    .236E-03                                                  
   14 T=  3042. E= -.19792326E+02 F= -.24903461E+02 E0= -.24823083E+02  EK=  .51111E+01 SP=  .00E+00 SK=  .00E+00 mag=      1.000
       N       E                     dE             d eps       ncg     rms          rms(c)                                      
DAV:   1     -.248957334288E+02     .77253E-02    -.23293E+00 12272    .982E+00     .792E-03                                     
RMM:   2     -.249024946817E+02    -.67613E-02    -.18117E-03 11383    .488E-02     .253E-03                                     
RMM:   3     -.249027866624E+02    -.29198E-03    -.30384E-05  8190    .915E-03     .135E-03                                     
RMM:   4     -.249029961955E+02    -.20953E-03    -.22963E-06  4473    .407E-03     .104E-03                                     
RMM:   5     -.249031318174E+02    -.13562E-03    -.67765E-07  3730    .321E-03     .751E-04                                     
RMM:   6     -.249032836897E+02    -.15187E-03    -.32673E-06  5933    .466E-03     .229E-04                                     
RMM:   7     -.249033270259E+02    -.43336E-04    -.17356E-06  3534    .337E-03     .912E-05                                     
RMM:   8     -.249033311761E+02    -.41503E-05    -.42673E-07  2360    .267E-03                                                  
   15 T=  3042. E= -.19792324E+02 F= -.24903331E+02 E0= -.24822953E+02  EK=  .51110E+01 SP=  .00E+00 SK=  .00E+00 mag=      1.000
       N       E                     dE             d eps       ncg     rms          rms(c)                                      
DAV:   1     -.248917066866E+02     .11620E-01    -.19762E+00 12824    .891E+00     .858E-03                                     
RMM:   2     -.249023360447E+02    -.10629E-01    -.39517E-02 11796    .167E-01     .276E-03                                     
RMM:   3     -.249027626876E+02    -.42664E-03    -.74829E-04  8322    .201E-02     .173E-03                                     
RMM:   4     -.249029884210E+02    -.22573E-03    -.32864E-05  5788    .702E-03     .987E-04                                     
RMM:   5     -.249031664141E+02    -.17799E-03    -.48493E-06  6098    .493E-03     .299E-04                                     
RMM:   6     -.249031942303E+02    -.27816E-04    -.14659E-06  4108    .377E-03                                                  
   16 T=  3041. E= -.19792313E+02 F= -.24903194E+02 E0= -.24822816E+02  EK=  .51109E+01 SP=  .00E+00 SK=  .00E+00 mag=      1.000
       N       E                     dE             d eps       ncg     rms          rms(c)                                      
DAV:   1     -.248953349851E+02     .78314E-02    -.43929E-01 11936    .843E+00     .787E-03                                     
RMM:   2     -.249023491322E+02    -.70141E-02    -.22362E-03 11590    .480E-02     .244E-03                                     
RMM:   3     -.249027668401E+02    -.41771E-03    -.65314E-05  8156    .931E-03     .150E-03                                     
RMM:   4     -.249029510473E+02    -.18421E-03    -.52457E-06  5538    .492E-03     .511E-04                                     
RMM:   5     -.249030112971E+02    -.60250E-04    -.16855E-06  4370    .380E-03     .189E-04                                     
RMM:   6     -.249030414010E+02    -.30104E-04    -.69309E-07  3337    .311E-03     .971E-05                                     
RMM:   7     -.249030750260E+02    -.33625E-04    -.24030E-06  4075    .367E-03     .502E-05                                     
RMM:   8     -.249030779197E+02    -.28937E-05    -.88229E-07  2957    .307E-03                                                  
   17 T=  3041. E= -.19792320E+02 F= -.24903078E+02 E0= -.24822700E+02  EK=  .51108E+01 SP=  .00E+00 SK=  .00E+00 mag=      1.000
       N       E                     dE             d eps       ncg     rms          rms(c)                                      
DAV:   1     -.248907421015E+02     .12333E-01    -.76961E-01 11696    .818E+00     .115E-02                                     
RMM:   2     -.249021164332E+02    -.11374E-01    -.47566E-02 11387    .131E-01     .366E-03                                     
RMM:   3     -.249026541188E+02    -.53769E-03    -.35685E-04  8694    .159E-02     .221E-03                                     
RMM:   4     -.249026780833E+02    -.23964E-04    -.11705E-05  5015    .521E-03                                                  
   18 T=  3041. E= -.19792041E+02 F= -.24902678E+02 E0= -.24822300E+02  EK=  .51106E+01 SP=  .00E+00 SK=  .00E+00 mag=      1.000
       N       E                     dE             d eps       ncg     rms          rms(c)                                      
DAV:   1     -.248949913709E+02     .76627E-02    -.17791E+00 11536    .910E+00     .870E-03                                     
RMM:   2     -.249014279055E+02    -.64365E-02    -.91347E-04 11249    .355E-02     .322E-03                                     
RMM:   3     -.249021403153E+02    -.71241E-03    -.17230E-05  8862    .797E-03     .163E-03                                     
RMM:   4     -.249027722584E+02    -.63194E-03    -.47251E-06  6541    .570E-03     .477E-04                                     
RMM:   5     -.249028061616E+02    -.33903E-04    -.18700E-06  4080    .362E-03     .300E-04                                     
RMM:   6     -.249028277033E+02    -.21542E-04    -.88380E-07  3724    .328E-03                                                  
   19 T=  3041. E= -.19792310E+02 F= -.24902828E+02 E0= -.24822451E+02  EK=  .51105E+01 SP=  .00E+00 SK=  .00E+00 mag=      1.000
       N       E                     dE             d eps       ncg     rms          rms(c)                                      
DAV:   1     -.248954515432E+02     .73546E-02    -.19392E+00 12248    .929E+00     .807E-03                                     
RMM:   2     -.249019252669E+02    -.64737E-02    -.18858E-03 11532    .491E-02     .267E-03                                     
RMM:   3     -.249024308219E+02    -.50555E-03    -.30655E-05  8020    .862E-03     .255E-03                                     
RMM:   4     -.249025170784E+02    -.86257E-04    -.33761E-06  4859    .436E-03     .177E-03                                     
RMM:   5     -.249026414943E+02    -.12442E-03    -.29639E-06  4521    .396E-03     .586E-04                                     
RMM:   6     -.249026876868E+02    -.46192E-04    -.93425E-07  3903    .359E-03     .427E-04                                     
RMM:   7     -.249026901472E+02    -.24604E-05    -.47878E-06  4496    .420E-03                                                  
   20 T=  3041. E= -.19792291E+02 F= -.24902690E+02 E0= -.24822313E+02  EK=  .51104E+01 SP=  .00E+00 SK=  .00E+00 mag=      1.000
       N       E                     dE             d eps       ncg     rms          rms(c)                                      
DAV:   1     -.248936078131E+02     .90799E-02    -.15262E+00 12608    .802E+00     .826E-03                                     
RMM:   2     -.249018060591E+02    -.81982E-02    -.13358E-02 11421    .101E-01     .209E-03                                     
RMM:   3     -.249023490236E+02    -.54296E-03    -.16909E-04  8215    .142E-02     .106E-03                                     
RMM:   4     -.249024844058E+02    -.13538E-03    -.13263E-05  5082    .572E-03     .571E-04                                     
RMM:   5     -.249025570617E+02    -.72656E-04    -.20059E-06  4518    .396E-03     .188E-04                                     
RMM:   6     -.249025926547E+02    -.35593E-04    -.25106E-06  4214    .396E-03     .679E-05                                     
RMM:   7     -.249025941780E+02    -.15233E-05    -.13596E-06  3536    .345E-03                                                  
   21 T=  3041. E= -.19792311E+02 F= -.24902594E+02 E0= -.24822218E+02  EK=  .51103E+01 SP=  .00E+00 SK=  .00E+00 mag=      1.000
       N       E                     dE             d eps       ncg     rms          rms(c)                                      
DAV:   1     -.248949292698E+02     .76634E-02    -.17875E+00 11616    .795E+00     .784E-03                                     
RMM:   2     -.249017173931E+02    -.67881E-02    -.14746E-03 10953    .381E-02     .184E-03                                     
RMM:   3     -.249022250813E+02    -.50769E-03    -.27502E-05  7597    .798E-03     .106E-03                                     
RMM:   4     -.249023540188E+02    -.12894E-03    -.41992E-06  4478    .421E-03     .500E-04                                     
RMM:   5     -.249024615325E+02    -.10751E-03    -.29802E-06  4879    .435E-03     .165E-04                                     
RMM:   6     -.249024734865E+02    -.11954E-04    -.86498E-07  3262    .323E-03                                                  
   22 T=  3041. E= -.19792305E+02 F= -.24902473E+02 E0= -.24822097E+02  EK=  .51102E+01 SP=  .00E+00 SK=  .00E+00 mag=      1.000
       N       E                     dE             d eps       ncg     rms          rms(c)                                      
DAV:   1     -.248901288717E+02     .12333E-01    -.19310E+00 11704    .860E+00     .915E-03                                     
RMM:   2     -.249015830236E+02    -.11454E-01    -.46810E-02 11155    .140E-01     .324E-03                                     
RMM:   3     -.249020953783E+02    -.51235E-03    -.66667E-04  9249    .183E-02     .145E-03                                     
RMM:   4     -.249020673014E+02     .28077E-04    -.38480E-05  5566    .745E-03                                                  
   23 T=  3041. E= -.19792010E+02 F= -.24902067E+02 E0= -.24821691E+02  EK=  .51101E+01 SP=  .00E+00 SK=  .00E+00 mag=      1.000
       N       E                     dE             d eps       ncg     rms          rms(c)                                      
DAV:   1     -.248928300237E+02     .92654E-02    -.17072E+00 12608    .934E+00     .866E-03                                     
RMM:   2     -.248999307281E+02    -.71007E-02    -.13463E-02 11510    .939E-02     .388E-03                                     
RMM:   3     -.249009552451E+02    -.10245E-02    -.27348E-04  8069    .134E-02     .234E-03                                     
RMM:   4     -.249020699408E+02    -.11147E-02    -.35004E-05  8051    .916E-03     .909E-04                                     
RMM:   5     -.249021942621E+02    -.12432E-03    -.14473E-05  5935    .669E-03     .454E-04                                     
RMM:   6     -.249022222103E+02    -.27948E-04    -.84862E-06  4643    .464E-03                                                  
   24 T=  3041. E= -.19792274E+02 F= -.24902222E+02 E0= -.24821846E+02  EK=  .51099E+01 SP=  .00E+00 SK=  .00E+00 mag=      1.000
       N       E                     dE             d eps       ncg     rms          rms(c)                                      
DAV:   1     -.248934813127E+02     .87129E-02    -.21520E+00 13424    .934E+00     .790E-03                                     
RMM:   2     -.249014025310E+02    -.79212E-02    -.18611E-02 12250    .136E-01     .190E-03                                     
RMM:   3     -.249019677524E+02    -.56522E-03    -.18049E-04  8170    .159E-02     .122E-03                                     
RMM:   4     -.249020450606E+02    -.77308E-04    -.18223E-05  5730    .688E-03     .989E-04                                     
RMM:   5     -.249020886592E+02    -.43599E-04    -.23516E-06  4470    .424E-03     .494E-04                                     
RMM:   6     -.249021266807E+02    -.38021E-04    -.38545E-06  4483    .410E-03     .265E-04                                     
RMM:   7     -.249021389398E+02    -.12259E-04    -.20165E-06  3956    .377E-03                                                  
   25 T=  3041. E= -.19792299E+02 F= -.24902139E+02 E0= -.24821763E+02  EK=  .51098E+01 SP=  .00E+00 SK=  .00E+00 mag=      1.000
       N       E                     dE             d eps       ncg     rms          rms(c)                                      
DAV:   1     -.248943152150E+02     .78115E-02    -.22911E+00 11944    .945E+00     .806E-03                                     
RMM:   2     -.249013515346E+02    -.70363E-02    -.73484E-04 11413    .380E-02     .161E-03                                     
RMM:   3     -.249018030564E+02    -.45152E-03    -.19305E-05  7877    .860E-03     .962E-04                                     
RMM:   4     -.249018986399E+02    -.95583E-04    -.30878E-06  4922    .462E-03     .505E-04                                     
RMM:   5     -.249020003163E+02    -.10168E-03    -.37591E-06  4779    .460E-03     .162E-04                                     
RMM:   6     -.249020277446E+02    -.27428E-04    -.30531E-06  4231    .399E-03                                                  
   26 T=  3041. E= -.19792295E+02 F= -.24902028E+02 E0= -.24821652E+02  EK=  .51097E+01 SP=  .00E+00 SK=  .00E+00 mag=      1.000
       N       E                     dE             d eps       ncg     rms          rms(c)                                      
DAV:   1     -.248940064785E+02     .79938E-02    -.12234E+00 11856    .848E+00     .799E-03                                     
RMM:   2     -.249012033360E+02    -.71969E-02    -.48120E-03 11653    .743E-02     .202E-03                                     
RMM:   3     -.249016756547E+02    -.47232E-03    -.10988E-04  8341    .134E-02     .979E-04                                     
RMM:   4     -.249018054328E+02    -.12978E-03    -.15007E-05  5517    .600E-03     .456E-04                                     
RMM:   5     -.249018888900E+02    -.83457E-04    -.41556E-06  4790    .435E-03     .230E-04                                     
RMM:   6     -.249019237627E+02    -.34873E-04    -.64757E-06  5244    .546E-03     .969E-05                                     
RMM:   7     -.249019252484E+02    -.14857E-05    -.11023E-06  2938    .321E-03                                                  
   27 T=  3041. E= -.19792298E+02 F= -.24901925E+02 E0= -.24821550E+02  EK=  .51096E+01 SP=  .00E+00 SK=  .00E+00 mag=      1.000
       N       E                     dE             d eps       ncg     rms          rms(c)                                      
DAV:   1     -.248937944896E+02     .81293E-02    -.10708E+00 12640    .768E+00     .790E-03                                     
RMM:   2     -.249011423563E+02    -.73479E-02    -.64293E-03 11715    .747E-02     .179E-03                                     
RMM:   3     -.249017114093E+02    -.56905E-03    -.69583E-05  8105    .115E-02     .839E-04                                     
RMM:   4     -.249017741567E+02    -.62747E-04    -.53968E-06  5148    .534E-03     .503E-04                                     
RMM:   5     -.249018130270E+02    -.38870E-04    -.19474E-06  3920    .379E-03     .292E-04                                     
RMM:   6     -.249018145867E+02    -.15596E-05    -.77191E-06  4672    .535E-03                                                  
   28 T=  3041. E= -.19792293E+02 F= -.24901815E+02 E0= -.24821439E+02  EK=  .51095E+01 SP=  .00E+00 SK=  .00E+00 mag=      1.000
       N       E                     dE             d eps       ncg     rms          rms(c)                                      
DAV:   1     -.248922917118E+02     .95213E-02    -.21217E+00 13880    .908E+00     .807E-03                                     
RMM:   2     -.249010393122E+02    -.87476E-02    -.20399E-02 11699    .116E-01     .223E-03                                     
RMM:   3     -.249015734029E+02    -.53409E-03    -.23321E-04  8462    .167E-02     .104E-03                                     
RMM:   4     -.249015636171E+02     .97858E-05    -.22554E-05  5672    .724E-03                                                  
   29 T=  3041. E= -.19792146E+02 F= -.24901564E+02 E0= -.24821189E+02  EK=  .51094E+01 SP=  .00E+00 SK=  .00E+00 mag=      1.000
       N       E                     dE             d eps       ncg     rms          rms(c)                                      
DAV:   1     -.248927207382E+02     .88527E-02    -.21638E+00 13008    .103E+01     .815E-03                                     
RMM:   2     -.249004447732E+02    -.77240E-02    -.12776E-02 12101    .962E-02     .188E-03                                     
RMM:   3     -.249012474682E+02    -.80270E-03    -.26110E-04  8559    .152E-02     .958E-04                                     
RMM:   4     -.249014831498E+02    -.23568E-03    -.39410E-05  6260    .788E-03     .464E-04                                     
RMM:   5     -.249015693760E+02    -.86226E-04    -.63429E-06  5155    .514E-03     .230E-04                                     
RMM:   6     -.249016068777E+02    -.37502E-04    -.12995E-05  5331    .631E-03     .908E-05                                     
RMM:   7     -.249016090225E+02    -.21449E-05    -.33020E-06  3381    .380E-03                                                  
   30 T=  3041. E= -.19792294E+02 F= -.24901609E+02 E0= -.24821234E+02  EK=  .51093E+01 SP=  .00E+00 SK=  .00E+00 mag=      1.000
       N       E                     dE             d eps       ncg     rms          rms(c)                                      
DAV:   1     -.248938076833E+02     .77992E-02    -.13009E+00 13912    .918E+00     .778E-03                                     
RMM:   2     -.249007871869E+02    -.69795E-02    -.55476E-03 12670    .880E-02     .193E-03                                     
RMM:   3     -.249013208993E+02    -.53371E-03    -.99624E-05  8707    .145E-02     .104E-03                                     
RMM:   4     -.249013945483E+02    -.73649E-04    -.97436E-06  5647    .557E-03     .624E-04                                     
RMM:   5     -.249014679108E+02    -.73362E-04    -.63105E-06  4873    .473E-03     .252E-04                                     
RMM:   6     -.249014975474E+02    -.29637E-04    -.52903E-06  4803    .468E-03                                                  
   31 T=  3040. E= -.19792284E+02 F= -.24901498E+02 E0= -.24821123E+02  EK=  .51092E+01 SP=  .00E+00 SK=  .00E+00 mag=       .999
       N       E                     dE             d eps       ncg     rms          rms(c)                                      
DAV:   1     -.248846587978E+02     .16809E-01    -.21650E+00 12264    .942E+00     .110E-02                                     
RMM:   2     -.249008215397E+02    -.16163E-01    -.93538E-02 11542    .160E-01     .327E-03                                     
RMM:   3     -.249012030990E+02    -.38156E-03    -.12730E-03  8733    .207E-02     .212E-03                                     
RMM:   4     -.249012401241E+02    -.37025E-04    -.72630E-05  5807    .815E-03     .153E-03                                     
RMM:   5     -.249012405813E+02    -.45725E-06    -.60257E-06  3869    .363E-03                                                  
   32 T=  3040. E= -.19792127E+02 F= -.24901241E+02 E0= -.24820866E+02  EK=  .51091E+01 SP=  .00E+00 SK=  .00E+00 mag=       .999
       N       E                     dE             d eps       ncg     rms          rms(c)                                      
DAV:   1     -.248930178916E+02     .82222E-02    -.28767E+00 13088    .111E+01     .829E-03                                     
RMM:   2     -.248996903518E+02    -.66725E-02    -.56351E-03 12430    .937E-02     .243E-03                                     
RMM:   3     -.249004081549E+02    -.71780E-03    -.82183E-05  8353    .128E-02     .148E-03                                     
RMM:   4     -.249010874482E+02    -.67929E-03    -.19850E-05  7244    .879E-03     .494E-04                                     
RMM:   5     -.249012180080E+02    -.13056E-03    -.10197E-05  5652    .670E-03     .457E-04                                     
RMM:   6     -.249012769589E+02    -.58951E-04    -.13268E-05  5079    .570E-03     .268E-04                                     
RMM:   7     -.249012899344E+02    -.12975E-04    -.22026E-05  4837    .620E-03                                                  
   33 T=  3040. E= -.19792274E+02 F= -.24901290E+02 E0= -.24820915E+02  EK=  .51090E+01 SP=  .00E+00 SK=  .00E+00 mag=       .999
       N       E                     dE             d eps       ncg     rms          rms(c)                                      
DAV:   1     -.248940901494E+02     .71868E-02    -.23888E+00 13232    .101E+01     .791E-03                                     
RMM:   2     -.249004265344E+02    -.63364E-02    -.13030E-03 12641    .589E-02     .337E-03                                     
RMM:   3     -.249009054475E+02    -.47891E-03    -.34405E-05  8542    .127E-02     .310E-03                                     
RMM:   4     -.249010685268E+02    -.16308E-03    -.15468E-05  6107    .697E-03     .211E-03                                     
RMM:   5     -.249011347208E+02    -.66194E-04    -.20819E-05  5639    .646E-03     .840E-04                                     
RMM:   6     -.249011756599E+02    -.40939E-04    -.28782E-06  4161    .404E-03     .327E-04                                     
RMM:   7     -.249012005775E+02    -.24918E-04    -.91400E-06  4968    .555E-03                                                  
   34 T=  3040. E= -.19792282E+02 F= -.24901201E+02 E0= -.24820826E+02  EK=  .51089E+01 SP=  .00E+00 SK=  .00E+00 mag=       .999
       N       E                     dE             d eps       ncg     rms          rms(c)                                      
DAV:   1     -.248906358027E+02     .10540E-01    -.84050E-01 13152    .880E+00     .839E-03                                     
RMM:   2     -.249005638428E+02    -.99280E-02    -.30809E-02 12022    .155E-01     .292E-03                                     
RMM:   3     -.249010147646E+02    -.45092E-03    -.40697E-04  8613    .195E-02     .152E-03                                     
RMM:   4     -.249009390043E+02     .75760E-04    -.64527E-05  6988    .119E-02     .848E-04                                     
RMM:   5     -.249009976681E+02    -.58664E-04    -.34557E-06  4129    .374E-03     .512E-04                                     
RMM:   6     -.249010445429E+02    -.46875E-04    -.25559E-06  4133    .389E-03     .251E-04                                     
RMM:   7     -.249011004810E+02    -.55938E-04    -.33193E-05  5671    .845E-03     .126E-04                                     
RMM:   8     -.249011039438E+02    -.34628E-05    -.17684E-06  3441    .367E-03                                                  
   35 T=  3040. E= -.19792283E+02 F= -.24901104E+02 E0= -.24820730E+02  EK=  .51088E+01 SP=  .00E+00 SK=  .00E+00 mag=       .999
       N       E                     dE             d eps       ncg     rms          rms(c)                                      
DAV:   1     -.248840192095E+02     .17081E-01    -.21503E+00 13008    .896E+00     .823E-03                                     
RMM:   2     -.249007168911E+02    -.16698E-01    -.10272E-01 11721    .122E-01     .310E-03                                     
RMM:   3     -.249007014397E+02     .15451E-04    -.23970E-03  8055    .204E-02     .170E-03                                     
RMM:   4     -.249007855830E+02    -.84143E-04    -.21301E-04  5123    .769E-03     .123E-03                                     
RMM:   5     -.249008991286E+02    -.11355E-03    -.11405E-05  4329    .436E-03     .566E-04                                     
RMM:   6     -.249009874403E+02    -.88312E-04    -.14923E-05  5665    .739E-03     .232E-04                                     
RMM:   7     -.249009980325E+02    -.10592E-04    -.45161E-06  3776    .448E-03                                                  
   36 T=  3040. E= -.19792275E+02 F= -.24900998E+02 E0= -.24820624E+02  EK=  .51087E+01 SP=  .00E+00 SK=  .00E+00 mag=       .999
       N       E                     dE             d eps       ncg     rms          rms(c)                                      
DAV:   1     -.248919482557E+02     .90392E-02    -.61421E-01 13160    .873E+00     .818E-03                                     
RMM:   2     -.249000113723E+02    -.80631E-02    -.16330E-02 11831    .916E-02     .268E-03                                     
RMM:   3     -.249002768680E+02    -.26550E-03    -.21986E-04  8394    .167E-02     .161E-03                                     
RMM:   4     -.249005225395E+02    -.24567E-03    -.19791E-05  5401    .614E-03     .103E-03                                     
RMM:   5     -.249008631434E+02    -.34060E-03    -.30208E-05  6240    .860E-03     .397E-04                                     
RMM:   6     -.249008845154E+02    -.21372E-04    -.84268E-06  4986    .669E-03                                                  
   37 T=  3040. E= -.19792259E+02 F= -.24900885E+02 E0= -.24820510E+02  EK=  .51086E+01 SP=  .00E+00 SK=  .00E+00 mag=       .999
       N       E                     dE             d eps       ncg     rms          rms(c)                                      
DAV:   1     -.248932050991E+02     .76580E-02    -.20390E+00 12624    .984E+00     .786E-03                                     
RMM:   2     -.249001771635E+02    -.69721E-02    -.27738E-03 12302    .600E-02     .242E-03                                     
RMM:   3     -.249004642292E+02    -.28707E-03    -.61458E-05  8293    .138E-02     .181E-03                                     
RMM:   4     -.249006362438E+02    -.17201E-03    -.12027E-05  5494    .580E-03     .121E-03                                     
RMM:   5     -.249007764161E+02    -.14017E-03    -.72695E-06  5744    .621E-03     .334E-04                                     
RMM:   6     -.249007825554E+02    -.61394E-05    -.20168E-06  3560    .377E-03                                                  
   38 T=  3040. E= -.19792255E+02 F= -.24900783E+02 E0= -.24820408E+02  EK=  .51085E+01 SP=  .00E+00 SK=  .00E+00 mag=       .999
       N       E                     dE             d eps       ncg     rms          rms(c)                                      
DAV:   1     -.248921235550E+02     .86529E-02    -.18992E+00 13232    .946E+00     .806E-03                                     
RMM:   2     -.249001765999E+02    -.80530E-02    -.13746E-02 11981    .992E-02     .258E-03                                     
RMM:   3     -.249006327865E+02    -.45619E-03    -.21474E-04  8817    .152E-02     .134E-03                                     
RMM:   4     -.249006818092E+02    -.49023E-04    -.18930E-05  5628    .666E-03     .840E-04                                     
RMM:   5     -.249006958212E+02    -.14012E-04    -.74463E-06  5312    .596E-03                                                  
   39 T=  3040. E= -.19792266E+02 F= -.24900696E+02 E0= -.24820322E+02  EK=  .51084E+01 SP=  .00E+00 SK=  .00E+00 mag=       .999
       N       E                     dE             d eps       ncg     rms          rms(c)                                      
DAV:   1     -.248922266616E+02     .84551E-02    -.15115E+00 14032    .866E+00     .805E-03                                     
RMM:   2     -.249000305437E+02    -.78039E-02    -.13600E-02 12196    .102E-01     .218E-03                                     
RMM:   3     -.249004776977E+02    -.44715E-03    -.28374E-04  8637    .181E-02     .131E-03                                     
RMM:   4     -.249005315325E+02    -.53835E-04    -.15669E-05  5166    .611E-03     .788E-04                                     
RMM:   5     -.249006039067E+02    -.72374E-04    -.42166E-05  6351    .954E-03     .284E-04                                     
RMM:   6     -.249006106048E+02    -.66981E-05    -.27730E-06  4089    .429E-03                                                  
   40 T=  3040. E= -.19792277E+02 F= -.24900611E+02 E0= -.24820236E+02  EK=  .51083E+01 SP=  .00E+00 SK=  .00E+00 mag=       .998
       N       E                     dE             d eps       ncg     rms          rms(c)                                      
DAV:   1     -.248930532220E+02     .75507E-02    -.17220E+00 13216    .849E+00     .777E-03                                     
RMM:   2     -.248996939675E+02    -.66407E-02    -.37763E-03 11901    .619E-02     .214E-03                                     
RMM:   3     -.249002751500E+02    -.58118E-03    -.53415E-05  7986    .109E-02     .127E-03                                     
RMM:   4     -.249004274296E+02    -.15228E-03    -.18991E-05  5911    .724E-03     .576E-04                                     
RMM:   5     -.249004897372E+02    -.62308E-04    -.24082E-05  5652    .719E-03     .266E-04                                     
RMM:   6     -.249005061326E+02    -.16395E-04    -.16735E-05  5019    .664E-03                                                  
   41 T=  3040. E= -.19792267E+02 F= -.24900506E+02 E0= -.24820132E+02  EK=  .51082E+01 SP=  .00E+00 SK=  .00E+00 mag=       .998
       N       E                     dE             d eps       ncg     rms          rms(c)                                      
DAV:   1     -.248901965629E+02     .10293E-01    -.18697E+00 13584    .962E+00     .869E-03                                     
RMM:   2     -.248996534800E+02    -.94569E-02    -.29443E-02 12061    .131E-01     .278E-03                                     
RMM:   3     -.249001266075E+02    -.47313E-03    -.36622E-04  8997    .203E-02     .152E-03                                     
RMM:   4     -.249002243158E+02    -.97708E-04    -.34876E-05  6112    .814E-03     .117E-03                                     
RMM:   5     -.249002874519E+02    -.63136E-04    -.80512E-06  5315    .567E-03     .643E-04                                     
RMM:   6     -.249003815329E+02    -.94081E-04    -.42758E-05  6160    .886E-03     .282E-04                                     
RMM:   7     -.249004068724E+02    -.25339E-04    -.23629E-05  5446    .769E-03                                                  
   42 T=  3040. E= -.19792262E+02 F= -.24900407E+02 E0= -.24820033E+02  EK=  .51081E+01 SP=  .00E+00 SK=  .00E+00 mag=       .998
       N       E                     dE             d eps       ncg     rms          rms(c)                                      
DAV:   1     -.248931659078E+02     .72156E-02    -.20156E+00 13488    .903E+00     .776E-03                                     
RMM:   2     -.248997114724E+02    -.65456E-02    -.90389E-04 12361    .468E-02     .269E-03                                     
RMM:   3     -.249001595385E+02    -.44807E-03    -.17174E-05  8122    .949E-03     .169E-03                                     
RMM:   4     -.249002697161E+02    -.11018E-03    -.40454E-06  5031    .490E-03     .103E-03                                     
RMM:   5     -.249002947976E+02    -.25081E-04    -.16175E-05  5518    .731E-03                                                  
   43 T=  3040. E= -.19792245E+02 F= -.24900295E+02 E0= -.24819921E+02  EK=  .51081E+01 SP=  .00E+00 SK=  .00E+00 mag=       .998
       N       E                     dE             d eps       ncg     rms          rms(c)                                      
DAV:   1     -.248792509973E+02     .21019E-01    -.38211E+00 13880    .927E+00     .990E-03                                     
RMM:   2     -.249008432654E+02    -.21592E-01    -.15001E-01 12429    .156E-01     .371E-03                                     
RMM:   3     -.249001016988E+02     .74157E-03    -.23327E-03  9888    .252E-02     .196E-03                                     
RMM:   4     -.249001552335E+02    -.53535E-04    -.12505E-04  5583    .756E-03     .146E-03                                     
RMM:   5     -.249002051482E+02    -.49915E-04    -.50398E-05  6203    .985E-03     .848E-04                                     
RMM:   6     -.249002166181E+02    -.11470E-04    -.44847E-06  4723    .455E-03                                                  
   44 T=  3040. E= -.19792262E+02 F= -.24900217E+02 E0= -.24819842E+02  EK=  .51080E+01 SP=  .00E+00 SK=  .00E+00 mag=       .998
       N       E                     dE             d eps       ncg     rms          rms(c)                                      
DAV:   1     -.248917133999E+02     .84917E-02    -.17119E+00 14128    .101E+01     .808E-03                                     
RMM:   2     -.248994966020E+02    -.77832E-02    -.17321E-02 12635    .119E-01     .330E-03                                     
RMM:   3     -.248998980780E+02    -.40148E-03    -.16365E-04  8552    .156E-02     .170E-03                                     
RMM:   4     -.249000579802E+02    -.15990E-03    -.22252E-05  6346    .792E-03     .902E-04                                     
RMM:   5     -.249000992901E+02    -.41310E-04    -.34384E-06  4866    .462E-03     .409E-04                                     
RMM:   6     -.249001202673E+02    -.20977E-04    -.53075E-06  4830    .488E-03                                                  
   45 T=  3040. E= -.19792262E+02 F= -.24900120E+02 E0= -.24819746E+02  EK=  .51079E+01 SP=  .00E+00 SK=  .00E+00 mag=       .998
       N       E                     dE             d eps       ncg     rms          rms(c)                                      
DAV:   1     -.248916606194E+02     .84387E-02    -.12488E+00 14048    .101E+01     .792E-03                                     
RMM:   2     -.248991978539E+02    -.75372E-02    -.14992E-02 12496    .108E-01     .278E-03                                     
RMM:   3     -.248998448736E+02    -.64702E-03    -.30911E-04  9046    .188E-02     .225E-03                                     
RMM:   4     -.248999684059E+02    -.12353E-03    -.58467E-05  6480    .104E-02     .106E-03                                     
RMM:   5     -.249000022698E+02    -.33864E-04    -.29223E-05  5776    .814E-03     .670E-04                                     
RMM:   6     -.249000188562E+02    -.16586E-04    -.41886E-06  4283    .412E-03                                                  
   46 T=  3040. E= -.19792258E+02 F= -.24900019E+02 E0= -.24819644E+02  EK=  .51078E+01 SP=  .00E+00 SK=  .00E+00 mag=       .997
       N       E                     dE             d eps       ncg     rms          rms(c)                                      
DAV:   1     -.248884104912E+02     .11592E-01    -.19921E+00 13608    .933E+00     .859E-03                                     
RMM:   2     -.248991487431E+02    -.10738E-01    -.45601E-02 12126    .143E-01     .294E-03                                     
RMM:   3     -.248995251836E+02    -.37644E-03    -.89901E-04  8623    .229E-02     .169E-03                                     
RMM:   4     -.248996910495E+02    -.16587E-03    -.55255E-05  5570    .780E-03     .110E-03                                     
RMM:   5     -.248998750698E+02    -.18402E-03    -.79153E-05  6808    .123E-02     .421E-04                                     
RMM:   6     -.248999052011E+02    -.30131E-04    -.26032E-05  5640    .857E-03     .262E-04                                     
RMM:   7     -.248999205173E+02    -.15316E-04    -.13935E-05  4654    .515E-03                                                  
   47 T=  3040. E= -.19792255E+02 F= -.24899921E+02 E0= -.24819546E+02  EK=  .51077E+01 SP=  .00E+00 SK=  .00E+00 mag=       .997
       N       E                     dE             d eps       ncg     rms          rms(c)                                      
DAV:   1     -.248906857602E+02     .92194E-02    -.23851E+00 14160    .903E+00     .827E-03                                     
RMM:   2     -.248993420886E+02    -.86563E-02    -.22681E-02 12611    .122E-01     .265E-03                                     
RMM:   3     -.248996057066E+02    -.26362E-03    -.47988E-04  9126    .253E-02     .168E-03                                     
RMM:   4     -.248996914686E+02    -.85762E-04    -.32784E-05  5970    .759E-03     .107E-03                                     
RMM:   5     -.248998016685E+02    -.11020E-03    -.95667E-05  6607    .133E-02     .490E-04                                     
RMM:   6     -.248998186623E+02    -.16994E-04    -.87406E-06  5042    .570E-03                                                  
   48 T=  3040. E= -.19792248E+02 F= -.24899819E+02 E0= -.24819444E+02  EK=  .51076E+01 SP=  .00E+00 SK=  .00E+00 mag=       .997
       N       E                     dE             d eps       ncg     rms          rms(c)                                      
DAV:   1     -.248922940610E+02     .75076E-02    -.94283E-01 13968    .839E+00     .800E-03                                     
RMM:   2     -.248993322448E+02    -.70382E-02    -.90327E-03 12432    .875E-02     .249E-03                                     
RMM:   3     -.248996402000E+02    -.30796E-03    -.16944E-04  8532    .130E-02     .167E-03                                     
RMM:   4     -.248996988277E+02    -.58628E-04    -.25520E-05  5490    .679E-03     .114E-03                                     
RMM:   5     -.248997199264E+02    -.21099E-04    -.15772E-05  5370    .598E-03                                                  
   49 T=  3039. E= -.19792245E+02 F= -.24899720E+02 E0= -.24819345E+02  EK=  .51075E+01 SP=  .00E+00 SK=  .00E+00 mag=       .997
       N       E                     dE             d eps       ncg     rms          rms(c)                                      
DAV:   1     -.248929675728E+02     .67313E-02    -.15579E+00 14080    .798E+00     .781E-03                                     
RMM:   2     -.248993255684E+02    -.63580E-02    -.27953E-03 12307    .605E-02     .217E-03                                     
RMM:   3     -.248995529062E+02    -.22734E-03    -.50960E-05  8288    .115E-02     .135E-03                                     
RMM:   4     -.248996119620E+02    -.59056E-04    -.14003E-05  5256    .549E-03     .860E-04                                     
RMM:   5     -.248996303688E+02    -.18407E-04    -.58567E-06  5400    .545E-03                                                  
   50 T=  3039. E= -.19792253E+02 F= -.24899630E+02 E0= -.24819255E+02  EK=  .51074E+01 SP=  .00E+00 SK=  .00E+00 mag=       .996
       N       E                     dE             d eps       ncg     rms          rms(c)                                      
DAV:   1     -.248930370181E+02     .65749E-02    -.31657E+00 13928    .849E+00     .781E-03                                     
RMM:   2     -.248992580525E+02    -.62210E-02    -.27431E-03 12556    .613E-02     .222E-03                                     
RMM:   3     -.248994405879E+02    -.18254E-03    -.66337E-05  8524    .132E-02     .163E-03                                     
RMM:   4     -.248994253617E+02     .15226E-04    -.25514E-05  6107    .704E-03                                                  
   51 T=  3039. E= -.19792147E+02 F= -.24899425E+02 E0= -.24819050E+02  EK=  .51073E+01 SP=  .00E+00 SK=  .00E+00 mag=       .996
       N       E                     dE             d eps       ncg     rms          rms(c)                                      
DAV:   1     -.248919195048E+02     .75211E-02    -.15538E+00 14616    .951E+00     .790E-03                                     
RMM:   2     -.248989243949E+02    -.70049E-02    -.12404E-02 12847    .103E-01     .248E-03                                     
RMM:   3     -.248993246292E+02    -.40023E-03    -.31837E-04  9109    .189E-02     .152E-03                                     
RMM:   4     -.248994139422E+02    -.89313E-04    -.41877E-05  6671    .924E-03     .774E-04                                     
RMM:   5     -.248994199901E+02    -.60479E-05    -.11730E-05  5345    .542E-03                                                  
   52 T=  3039. E= -.19792240E+02 F= -.24899420E+02 E0= -.24819044E+02  EK=  .51072E+01 SP=  .00E+00 SK=  .00E+00 mag=       .996
       N       E                     dE             d eps       ncg     rms          rms(c)                                      
DAV:   1     -.248920403183E+02     .73736E-02    -.19872E+00 14208    .869E+00     .783E-03                                     
RMM:   2     -.248988733090E+02    -.68330E-02    -.79134E-03 12677    .820E-02     .271E-03                                     
RMM:   3     -.248991909724E+02    -.31766E-03    -.24968E-04  8726    .146E-02     .159E-03                                     
RMM:   4     -.248993008852E+02    -.10991E-03    -.13831E-04  7293    .134E-02     .771E-04                                     
RMM:   5     -.248993193586E+02    -.18473E-04    -.10523E-05  5337    .486E-03                                                  
   53 T=  3039. E= -.19792235E+02 F= -.24899319E+02 E0= -.24818943E+02  EK=  .51071E+01 SP=  .00E+00 SK=  .00E+00 mag=       .995
       N       E                     dE             d eps       ncg     rms          rms(c)                                      
DAV:   1     -.248833153257E+02     .15986E-01    -.53810E+00 14616    .114E+01     .121E-02                                     
RMM:   2     -.248989618137E+02    -.15646E-01    -.10066E-01 12899    .253E-01     .479E-03                                     
RMM:   3     -.248991541709E+02    -.19236E-03    -.13155E-03 10326    .301E-02     .254E-03                                     
RMM:   4     -.248991994585E+02    -.45288E-04    -.10018E-04  5543    .842E-03     .200E-03                                     
RMM:   5     -.248992135409E+02    -.14082E-04    -.15652E-05  5479    .522E-03                                                  
   54 T=  3039. E= -.19792224E+02 F= -.24899214E+02 E0= -.24818837E+02  EK=  .51070E+01 SP=  .00E+00 SK=  .00E+00 mag=       .995
       N       E                     dE             d eps       ncg     rms          rms(c)                                      
DAV:   1     -.248924194037E+02     .67801E-02    -.26638E+00 15280    .115E+01     .812E-03                                     
RMM:   2     -.248989642213E+02    -.65448E-02    -.10806E-02 13328    .122E-01     .245E-03                                     
RMM:   3     -.248990530778E+02    -.88856E-04    -.18732E-04  9689    .160E-02     .136E-03                                     
RMM:   4     -.248991082987E+02    -.55221E-04    -.38619E-05  6485    .905E-03     .884E-04                                     
RMM:   5     -.248991220518E+02    -.13753E-04    -.30321E-06  5140    .442E-03                                                  
   55 T=  3039. E= -.19792227E+02 F= -.24899122E+02 E0= -.24818745E+02  EK=  .51069E+01 SP=  .00E+00 SK=  .00E+00 mag=       .995
       N       E                     dE             d eps       ncg     rms          rms(c)                                      
DAV:   1     -.248917442033E+02     .73641E-02    -.12641E+00 14528    .975E+00     .796E-03                                     
RMM:   2     -.248984737498E+02    -.67295E-02    -.10154E-02 13195    .924E-02     .358E-03                                     
RMM:   3     -.248989597211E+02    -.48597E-03    -.61542E-04  9728    .173E-02     .278E-03                                     
RMM:   4     -.248990159149E+02    -.56194E-04    -.82034E-05  6869    .989E-03     .204E-03                                     
RMM:   5     -.248990199981E+02    -.40832E-05    -.11313E-05  4317    .383E-03                                                  
   56 T=  3039. E= -.19792221E+02 F= -.24899020E+02 E0= -.24818643E+02  EK=  .51068E+01 SP=  .00E+00 SK=  .00E+00 mag=       .994
       N       E                     dE             d eps       ncg     rms          rms(c)                                      
DAV:   1     -.248930230008E+02     .59929E-02    -.83537E-01 14648    .841E+00     .798E-03                                     
RMM:   2     -.248987748521E+02    -.57519E-02    -.48174E-03 12850    .833E-02     .238E-03                                     
RMM:   3     -.248988862028E+02    -.11135E-03    -.79249E-05  8737    .121E-02     .131E-03                                     
RMM:   4     -.248989148505E+02    -.28648E-04    -.13590E-05  5434    .557E-03                                                  
   57 T=  3039. E= -.19792208E+02 F= -.24898915E+02 E0= -.24818537E+02  EK=  .51067E+01 SP=  .00E+00 SK=  .00E+00 mag=       .994
       N       E                     dE             d eps       ncg     rms          rms(c)                                      
DAV:   1     -.248933619663E+02     .55242E-02    -.91918E-01 14160    .725E+00     .800E-03                                     
RMM:   2     -.248986959073E+02    -.53339E-02    -.43112E-03 12523    .806E-02     .334E-03                                     
RMM:   3     -.248988226562E+02    -.12675E-03    -.79853E-05  8480    .122E-02     .211E-03                                     
RMM:   4     -.248988338132E+02    -.11157E-04    -.66927E-06  5874    .548E-03                                                  
   58 T=  3039. E= -.19792217E+02 F= -.24898834E+02 E0= -.24818455E+02  EK=  .51066E+01 SP=  .00E+00 SK=  .00E+00 mag=       .993
       N       E                     dE             d eps       ncg     rms          rms(c)                                      
DAV:   1     -.248921227322E+02     .66999E-02    -.13038E+00 14736    .829E+00     .821E-03                                     
RMM:   2     -.248985737477E+02    -.64510E-02    -.13708E-02 13018    .112E-01     .344E-03                                     
RMM:   3     -.248987042063E+02    -.13046E-03    -.18601E-04  9487    .160E-02     .189E-03                                     
RMM:   4     -.248987097760E+02    -.55698E-05    -.14141E-05  5443    .525E-03                                                  
   59 T=  3039. E= -.19792183E+02 F= -.24898710E+02 E0= -.24818331E+02  EK=  .51065E+01 SP=  .00E+00 SK=  .00E+00 mag=       .993
       N       E                     dE             d eps       ncg     rms          rms(c)                                      
DAV:   1     -.248922343217E+02     .64699E-02    -.10529E+00 14848    .948E+00     .832E-03                                     
RMM:   2     -.248983829692E+02    -.61486E-02    -.11666E-02 13325    .125E-01     .254E-03                                     
RMM:   3     -.248985549595E+02    -.17199E-03    -.16510E-04  8881    .154E-02     .122E-03                                     
RMM:   4     -.248985995770E+02    -.44617E-04    -.10138E-05  5824    .568E-03     .678E-04                                     
RMM:   5     -.248986370841E+02    -.37507E-04    -.39455E-06  5310    .452E-03     .232E-04                                     
RMM:   6     -.248986524090E+02    -.15325E-04    -.38530E-06  4240    .416E-03                                                  
   60 T=  3039. E= -.19792215E+02 F= -.24898652E+02 E0= -.24818272E+02  EK=  .51064E+01 SP=  .00E+00 SK=  .00E+00 mag=       .992
       N       E                     dE             d eps       ncg     rms          rms(c)                                      
DAV:   1     -.248930340515E+02     .56030E-02    -.96749E-01 14800    .879E+00     .796E-03                                     
RMM:   2     -.248982790113E+02    -.52450E-02    -.50372E-03 13266    .101E-01     .209E-03                                     
RMM:   3     -.248985509065E+02    -.27190E-03    -.17581E-04  8945    .183E-02     .128E-03                                     
RMM:   4     -.248985628251E+02    -.11919E-04    -.11745E-05  5910    .583E-03                                                  
   61 T=  3039. E= -.19792211E+02 F= -.24898563E+02 E0= -.24818182E+02  EK=  .51064E+01 SP=  .00E+00 SK=  .00E+00 mag=       .992
       N       E                     dE             d eps       ncg     rms          rms(c)                                      
DAV:   1     -.248935731959E+02     .49777E-02    -.24495E+00 14248    .931E+00     .815E-03                                     
RMM:   2     -.248984014733E+02    -.48283E-02    -.40784E-03 12989    .845E-02     .214E-03                                     
RMM:   3     -.248984575236E+02    -.56050E-04    -.36857E-05  8657    .914E-03     .118E-03                                     
RMM:   4     -.248984709559E+02    -.13432E-04    -.39079E-06  5249    .472E-03                                                  
   62 T=  3039. E= -.19792201E+02 F= -.24898471E+02 E0= -.24818089E+02  EK=  .51063E+01 SP=  .00E+00 SK=  .00E+00 mag=       .991
       N       E                     dE             d eps       ncg     rms          rms(c)                                      
DAV:   1     -.248931335230E+02     .53240E-02    -.20366E+00 14928    .901E+00     .826E-03                                     
RMM:   2     -.248982682561E+02    -.51347E-02    -.64863E-03 13236    .114E-01     .209E-03                                     
RMM:   3     -.248983513652E+02    -.83109E-04    -.10007E-04  9320    .138E-02     .120E-03                                     
RMM:   4     -.248983791155E+02    -.27750E-04    -.12367E-05  6127    .611E-03                                                  
   63 T=  3039. E= -.19792187E+02 F= -.24898379E+02 E0= -.24817997E+02  EK=  .51062E+01 SP=  .00E+00 SK=  .00E+00 mag=       .991
       N       E                     dE             d eps       ncg     rms          rms(c)                                      
DAV:   1     -.248931523363E+02     .51990E-02    -.18320E+00 14584    .105E+01     .803E-03                                     
RMM:   2     -.248981548435E+02    -.50025E-02    -.10020E-02 13342    .116E-01     .223E-03                                     
RMM:   3     -.248982931910E+02    -.13835E-03    -.21930E-04  9297    .164E-02     .115E-03                                     
RMM:   4     -.248983028098E+02    -.96188E-05    -.12782E-05  5587    .574E-03                                                  
   64 T=  3039. E= -.19792186E+02 F= -.24898303E+02 E0= -.24817920E+02  EK=  .51061E+01 SP=  .00E+00 SK=  .00E+00 mag=       .990
       N       E                     dE             d eps       ncg     rms          rms(c)                                      
DAV:   1     -.248923535977E+02     .59396E-02    -.16582E+00 15008    .110E+01     .845E-03                                     
RMM:   2     -.248980995018E+02    -.57459E-02    -.12221E-02 13687    .141E-01     .228E-03                                     
RMM:   3     -.248982135775E+02    -.11408E-03    -.17456E-04  9779    .178E-02     .110E-03                                     
RMM:   4     -.248982258272E+02    -.12250E-04    -.15083E-05  6372    .645E-03                                                  
   65 T=  3039. E= -.19792180E+02 F= -.24898226E+02 E0= -.24817842E+02  EK=  .51060E+01 SP=  .00E+00 SK=  .00E+00 mag=       .989
       N       E                     dE             d eps       ncg     rms          rms(c)                                      
DAV:   1     -.248943264291E+02     .38871E-02    -.19416E+00 14544    .101E+01     .817E-03                                     
RMM:   2     -.248980841777E+02    -.37577E-02    -.40150E-03 13452    .104E-01     .195E-03                                     
RMM:   3     -.248981380146E+02    -.53837E-04    -.43363E-05  8962    .108E-02     .937E-04                                     
RMM:   4     -.248981474039E+02    -.93893E-05    -.33059E-06  5263    .462E-03                                                  
   66 T=  3039. E= -.19792165E+02 F= -.24898147E+02 E0= -.24817762E+02  EK=  .51060E+01 SP=  .00E+00 SK=  .00E+00 mag=       .989
       N       E                     dE             d eps       ncg     rms          rms(c)                                      
DAV:   1     -.248940410741E+02     .40969E-02    -.16986E+00 14192    .998E+00     .814E-03                                     
RMM:   2     -.248980314704E+02    -.39904E-02    -.31333E-03 13029    .852E-02     .209E-03                                     
RMM:   3     -.248980890739E+02    -.57604E-04    -.28707E-05  8909    .916E-03     .108E-03                                     
RMM:   4     -.248981024385E+02    -.13365E-04    -.50912E-06  6041    .510E-03                                                  
   67 T=  3039. E= -.19792178E+02 F= -.24898102E+02 E0= -.24817716E+02  EK=  .51059E+01 SP=  .00E+00 SK=  .00E+00 mag=       .988
       N       E                     dE             d eps       ncg     rms          rms(c)                                      
DAV:   1     -.248930525393E+02     .50365E-02    -.23856E+00 14800    .104E+01     .849E-03                                     
RMM:   2     -.248979319961E+02    -.48795E-02    -.15101E-02 13450    .148E-01     .189E-03                                     
RMM:   3     -.248980201349E+02    -.88139E-04    -.22733E-04  9281    .163E-02     .947E-04                                     
RMM:   4     -.248980411073E+02    -.20972E-04    -.16944E-05  5817    .631E-03                                                  
   68 T=  3039. E= -.19792170E+02 F= -.24898041E+02 E0= -.24817654E+02  EK=  .51059E+01 SP=  .00E+00 SK=  .00E+00 mag=       .987
       N       E                     dE             d eps       ncg     rms          rms(c)                                      
DAV:   1     -.248943832859E+02     .36368E-02    -.13319E+00 14440    .964E+00     .849E-03                                     
RMM:   2     -.248979058395E+02    -.35226E-02    -.44340E-03 13196    .102E-01     .200E-03                                     
RMM:   3     -.248979609094E+02    -.55070E-04    -.35857E-05  8989    .966E-03     .107E-03                                     
RMM:   4     -.248979970494E+02    -.36140E-04    -.96742E-06  6485    .619E-03     .467E-04                                     
RMM:   5     -.248980015720E+02    -.45225E-05    -.13363E-06  4363    .372E-03                                                  
   69 T=  3038. E= -.19792174E+02 F= -.24898002E+02 E0= -.24817613E+02  EK=  .51058E+01 SP=  .00E+00 SK=  .00E+00 mag=       .986
       N       E                     dE             d eps       ncg     rms          rms(c)                                      
DAV:   1     -.248943442418E+02     .36528E-02    -.12591E+00 15120    .894E+00     .827E-03                                     
RMM:   2     -.248979069486E+02    -.35627E-02    -.64165E-03 13117    .118E-01     .181E-03                                     
RMM:   3     -.248979519472E+02    -.44999E-04    -.80607E-05  8956    .127E-02     .103E-03                                     
RMM:   4     -.248979618652E+02    -.99179E-05    -.62340E-06  5432    .533E-03                                                  
   70 T=  3038. E= -.19792168E+02 F= -.24897962E+02 E0= -.24817572E+02  EK=  .51058E+01 SP=  .00E+00 SK=  .00E+00 mag=       .985
       N       E                     dE             d eps       ncg     rms          rms(c)                                      
DAV:   1     -.248928577168E+02     .50942E-02    -.17980E+00 15280    .851E+00     .862E-03                                     
RMM:   2     -.248978251843E+02    -.49675E-02    -.24119E-02 13083    .173E-01     .193E-03                                     
RMM:   3     -.248979155104E+02    -.90326E-04    -.40061E-04  9305    .190E-02     .122E-03                                     
RMM:   4     -.248979346709E+02    -.19160E-04    -.49487E-05  6072    .751E-03                                                  
   71 T=  3038. E= -.19792163E+02 F= -.24897935E+02 E0= -.24817543E+02  EK=  .51058E+01 SP=  .00E+00 SK=  .00E+00 mag=       .985
       N       E                     dE             d eps       ncg     rms          rms(c)                                      
DAV:   1     -.248920597951E+02     .58557E-02    -.10564E+00 14680    .857E+00     .891E-03                                     
RMM:   2     -.248977605110E+02    -.57007E-02    -.31699E-02 13059    .189E-01     .259E-03                                     
RMM:   3     -.248979110724E+02    -.15056E-03    -.63911E-04  9303    .231E-02     .128E-03                                     
RMM:   4     -.248979207762E+02    -.97039E-05    -.48142E-05  5610    .709E-03                                                  
   72 T=  3038. E= -.19792159E+02 F= -.24897921E+02 E0= -.24817528E+02  EK=  .51058E+01 SP=  .00E+00 SK=  .00E+00 mag=       .983
       N       E                     dE             d eps       ncg     rms          rms(c)                                      
DAV:   1     -.248956957316E+02     .22153E-02    -.11416E+00 13824    .825E+00     .839E-03                                     
RMM:   2     -.248978770469E+02    -.21813E-02    -.21501E-03 12962    .799E-02     .252E-03                                     
RMM:   3     -.248979105895E+02    -.33543E-04    -.21606E-05  8734    .846E-03     .140E-03                                     
RMM:   4     -.248979169252E+02    -.63357E-05    -.16950E-06  4717    .383E-03                                                  
   73 T=  3038. E= -.19792151E+02 F= -.24897917E+02 E0= -.24817522E+02  EK=  .51058E+01 SP=  .00E+00 SK=  .00E+00 mag=       .982
       N       E                     dE             d eps       ncg     rms          rms(c)                                      
DAV:   1     -.248924384890E+02     .54721E-02    -.11116E+00 14584    .837E+00     .867E-03                                     
RMM:   2     -.248977996059E+02    -.53611E-02    -.35136E-02 13108    .196E-01     .280E-03                                     
RMM:   3     -.248979173924E+02    -.11779E-03    -.69371E-04  9939    .227E-02     .156E-03                                     
RMM:   4     -.248979368149E+02    -.19422E-04    -.43041E-05  5885    .788E-03                                                  
   74 T=  3038. E= -.19792149E+02 F= -.24897937E+02 E0= -.24817541E+02  EK=  .51058E+01 SP=  .00E+00 SK=  .00E+00 mag=       .981
       N       E                     dE             d eps       ncg     rms          rms(c)                                      
DAV:   1     -.248935973522E+02     .43200E-02    -.18594E+00 14760    .103E+01     .850E-03                                     
RMM:   2     -.248978792802E+02    -.42819E-02    -.25986E-02 13517    .163E-01     .207E-03                                     
RMM:   3     -.248979667723E+02    -.87492E-04    -.40121E-04  9407    .183E-02     .123E-03                                     
RMM:   4     -.248979737693E+02    -.69970E-05    -.33902E-05  5596    .681E-03                                                  
   75 T=  3038. E= -.19792144E+02 F= -.24897974E+02 E0= -.24817576E+02  EK=  .51058E+01 SP=  .00E+00 SK=  .00E+00 mag=       .980
       N       E                     dE             d eps       ncg     rms          rms(c)                                      
DAV:   1     -.248961532682E+02     .18135E-02    -.76565E-01 13744    .942E+00     .840E-03                                     
RMM:   2     -.248979715398E+02    -.18183E-02    -.43937E-03 13127    .902E-02     .293E-03                                     
RMM:   3     -.248980022869E+02    -.30747E-04    -.59112E-05  9278    .109E-02     .135E-03                                     
RMM:   4     -.248980228128E+02    -.20526E-04    -.69268E-06  5869    .532E-03                                                  
   76 T=  3039. E= -.19792131E+02 F= -.24898023E+02 E0= -.24817623E+02  EK=  .51059E+01 SP=  .00E+00 SK=  .00E+00 mag=       .979
       N       E                     dE             d eps       ncg     rms          rms(c)                                      
DAV:   1     -.248962981852E+02     .17041E-02    -.16261E+00 13832    .912E+00     .801E-03                                     
RMM:   2     -.248980595572E+02    -.17614E-02    -.72513E-03 12690    .941E-02     .211E-03                                     
RMM:   3     -.248980982885E+02    -.38731E-04    -.93229E-05  8610    .115E-02     .153E-03                                     
RMM:   4     -.248981077480E+02    -.94595E-05    -.68024E-06  5390    .516E-03                                                  
   77 T=  3039. E= -.19792129E+02 F= -.24898108E+02 E0= -.24817707E+02  EK=  .51060E+01 SP=  .00E+00 SK=  .00E+00 mag=       .977
       N       E                     dE             d eps       ncg     rms          rms(c)                                      
DAV:   1     -.248968467280E+02     .12516E-02    -.13200E+00 13440    .978E+00     .793E-03                                     
RMM:   2     -.248981892763E+02    -.13425E-02    -.46546E-03 12586    .822E-02     .192E-03                                     
RMM:   3     -.248982161810E+02    -.26905E-04    -.56431E-05  8925    .108E-02                                                  
   78 T=  3039. E= -.19792122E+02 F= -.24898216E+02 E0= -.24817814E+02  EK=  .51061E+01 SP=  .00E+00 SK=  .00E+00 mag=       .976
       N       E                     dE             d eps       ncg     rms          rms(c)                                      
DAV:   1     -.248952537719E+02     .29355E-02    -.19257E+00 13712    .101E+01     .848E-03                                     
RMM:   2     -.248982640657E+02    -.30103E-02    -.24091E-02 12586    .114E-01     .255E-03                                     
RMM:   3     -.248983441634E+02    -.80098E-04    -.49501E-04  9049    .150E-02     .157E-03                                     
RMM:   4     -.248983556548E+02    -.11491E-04    -.32481E-05  5190    .586E-03                                                  
   79 T=  3039. E= -.19792116E+02 F= -.24898356E+02 E0= -.24817951E+02  EK=  .51062E+01 SP=  .00E+00 SK=  .00E+00 mag=       .974
       N       E                     dE             d eps       ncg     rms          rms(c)                                      
[...]
RMM:   7     -.247473993611E+02    -.58765E-03    -.27264E-06  5343    .418E-03     .471E-04                                     
RMM:   8     -.247474961208E+02    -.96760E-04    -.45652E-06  5018    .492E-03     .285E-04                                     
RMM:   9     -.247474904862E+02     .56346E-05    -.28075E-07  2629    .275E-03                                                  
  930 T=  2952. E= -.19787702E+02 F= -.24747490E+02 E0= -.24666126E+02  EK=  .49598E+01 SP=  .00E+00 SK=  .00E+00 mag=      1.000
       N       E                     dE             d eps       ncg     rms          rms(c)                                      
DAV:   1     -.247374770580E+02     .10019E-01    -.74308E-01 11752    .591E+00     .797E-03                                     
RMM:   2     -.247420856429E+02    -.46086E-02    -.27130E-02 11105    .104E-01     .536E-03                                     
RMM:   3     -.247433402457E+02    -.12546E-02    -.41438E-04  6279    .139E-02     .455E-03                                     
RMM:   4     -.247439489429E+02    -.60870E-03    -.35465E-05  3782    .555E-03     .362E-03                                     
RMM:   5     -.247460842186E+02    -.21353E-02    -.54758E-06  6807    .527E-03     .221E-03                                     
RMM:   6     -.247469011189E+02    -.81690E-03    -.29248E-06  5482    .437E-03     .632E-04                                     
RMM:   7     -.247471266597E+02    -.22554E-03    -.75054E-06  5656    .581E-03     .317E-04                                     
RMM:   8     -.247471197436E+02     .69160E-05    -.32025E-07  2682    .284E-03                                                  
  931 T=  2951. E= -.19787692E+02 F= -.24747120E+02 E0= -.24665756E+02  EK=  .49594E+01 SP=  .00E+00 SK=  .00E+00 mag=      1.000
       N       E                     dE             d eps       ncg     rms          rms(c)                                      
DAV:   1     -.247376407534E+02     .94859E-02    -.10393E+00 11560    .664E+00     .765E-03                                     
RMM:   2     -.247416890425E+02    -.40483E-02    -.21501E-02 11333    .789E-02     .529E-03                                     
RMM:   3     -.247433661948E+02    -.16772E-02    -.56738E-04  6222    .124E-02     .418E-03                                     
RMM:   4     -.247441830410E+02    -.81685E-03    -.45515E-05  4312    .559E-03     .324E-03                                     
RMM:   5     -.247462377103E+02    -.20547E-02    -.81120E-06  7183    .583E-03     .179E-03                                     
RMM:   6     -.247467331146E+02    -.49540E-03    -.33376E-06  5110    .434E-03     .480E-04                                     
RMM:   7     -.247467480433E+02    -.14929E-04    -.39685E-06  4987    .486E-03                                                  
  932 T=  2951. E= -.19787677E+02 F= -.24746748E+02 E0= -.24665385E+02  EK=  .49591E+01 SP=  .00E+00 SK=  .00E+00 mag=      1.000
       N       E                     dE             d eps       ncg     rms          rms(c)                                      
DAV:   1     -.247380555099E+02     .86776E-02    -.18786E+00 12176    .815E+00     .749E-03                                     
RMM:   2     -.247414126868E+02    -.33572E-02    -.14726E-02 11708    .102E-01     .522E-03                                     
RMM:   3     -.247436517242E+02    -.22390E-02    -.19167E-04  6881    .125E-02     .300E-03                                     
RMM:   4     -.247451672645E+02    -.15155E-02    -.16659E-05  7023    .655E-03     .347E-03                                     
RMM:   5     -.247461655105E+02    -.99825E-03    -.42096E-06  6150    .475E-03     .176E-03                                     
RMM:   6     -.247464215342E+02    -.25602E-03    -.54496E-06  5482    .514E-03     .373E-04                                     
RMM:   7     -.247463959250E+02     .25609E-04    -.78930E-07  3528    .330E-03                                                  
  933 T=  2951. E= -.19787680E+02 F= -.24746396E+02 E0= -.24665034E+02  EK=  .49587E+01 SP=  .00E+00 SK=  .00E+00 mag=      1.000
       N       E                     dE             d eps       ncg     rms          rms(c)                                      
DAV:   1     -.247314152057E+02     .15006E-01    -.22186E+00 11904    .800E+00     .849E-03                                     
RMM:   2     -.247408286288E+02    -.94134E-02    -.75014E-02 11672    .134E-01     .550E-03                                     
RMM:   3     -.247421892480E+02    -.13606E-02    -.17280E-03  7374    .178E-02     .485E-03                                     
RMM:   4     -.247426454389E+02    -.45619E-03    -.10421E-04  3998    .625E-03     .385E-03                                     
RMM:   5     -.247443275483E+02    -.16821E-02    -.68627E-06  5466    .452E-03     .209E-03                                     
RMM:   6     -.247454132539E+02    -.10857E-02    -.27003E-06  6268    .450E-03     .143E-03                                     
RMM:   7     -.247459918810E+02    -.57863E-03    -.25858E-06  5268    .407E-03     .435E-04                                     
RMM:   8     -.247460661862E+02    -.74305E-04    -.23895E-06  4505    .406E-03     .244E-04                                     
RMM:   9     -.247460629983E+02     .31880E-05    -.21041E-07  2577    .267E-03                                                  
  934 T=  2951. E= -.19787700E+02 F= -.24746063E+02 E0= -.24664701E+02  EK=  .49584E+01 SP=  .00E+00 SK=  .00E+00 mag=      1.000
       N       E                     dE             d eps       ncg     rms          rms(c)                                      
DAV:   1     -.247384301138E+02     .76361E-02    -.88916E-01 11432    .743E+00     .729E-03                                     
RMM:   2     -.247406893157E+02    -.22592E-02    -.36399E-03 11407    .462E-02     .520E-03                                     
RMM:   3     -.247436146967E+02    -.29254E-02    -.57607E-05  7037    .797E-03     .233E-03                                     
RMM:   4     -.247452912699E+02    -.16766E-02    -.86322E-06  7559    .607E-03     .337E-03                                     
RMM:   5     -.247456822794E+02    -.39101E-03    -.88888E-06  5871    .600E-03     .813E-04                                     
RMM:   6     -.247456717642E+02     .10515E-04    -.35837E-07  2964    .292E-03                                                  
  935 T=  2951. E= -.19787659E+02 F= -.24745672E+02 E0= -.24664311E+02  EK=  .49580E+01 SP=  .00E+00 SK=  .00E+00 mag=      1.000
       N       E                     dE             d eps       ncg     rms          rms(c)                                      
DAV:   1     -.247379819939E+02     .77003E-02    -.16853E+00 11544    .735E+00     .741E-03                                     
RMM:   2     -.247404516058E+02    -.24696E-02    -.60829E-03 11345    .570E-02     .528E-03                                     
RMM:   3     -.247423838806E+02    -.19323E-02    -.88599E-05  7097    .892E-03     .387E-03                                     
RMM:   4     -.247437135837E+02    -.13297E-02    -.70598E-06  5455    .481E-03     .297E-03                                     
RMM:   5     -.247449093866E+02    -.11958E-02    -.31988E-06  6584    .466E-03     .209E-03                                     
RMM:   6     -.247452970906E+02    -.38770E-03    -.88787E-06  5979    .600E-03     .377E-04                                     
RMM:   7     -.247453187495E+02    -.21659E-04    -.23110E-07  2580    .266E-03                                                  
  936 T=  2950. E= -.19787654E+02 F= -.24745319E+02 E0= -.24663959E+02  EK=  .49577E+01 SP=  .00E+00 SK=  .00E+00 mag=      1.000
       N       E                     dE             d eps       ncg     rms          rms(c)                                      
DAV:   1     -.247370737593E+02     .82233E-02    -.19941E+00 12064    .871E+00     .745E-03                                     
RMM:   2     -.247398687423E+02    -.27950E-02    -.87263E-03 11631    .815E-02     .533E-03                                     
RMM:   3     -.247411505608E+02    -.12818E-02    -.11249E-04  7181    .110E-02     .444E-03                                     
RMM:   4     -.247422392162E+02    -.10887E-02    -.99244E-06  4792    .513E-03     .338E-03                                     
RMM:   5     -.247438130000E+02    -.15738E-02    -.26333E-06  6503    .462E-03     .234E-03                                     
RMM:   6     -.247450009573E+02    -.11880E-02    -.65417E-06  6522    .542E-03     .479E-04                                     
RMM:   7     -.247450153066E+02    -.14349E-04    -.11561E-06  3629    .343E-03                                                  
  937 T=  2950. E= -.19787695E+02 F= -.24745015E+02 E0= -.24663656E+02  EK=  .49573E+01 SP=  .00E+00 SK=  .00E+00 mag=      1.000
       N       E                     dE             d eps       ncg     rms          rms(c)                                      
DAV:   1     -.247377840953E+02     .72169E-02    -.13074E+00 11256    .736E+00     .737E-03                                     
RMM:   2     -.247396835204E+02    -.18994E-02    -.18677E-04 10921    .226E-02     .531E-03                                     
RMM:   3     -.247424416828E+02    -.27582E-02    -.59534E-06  7608    .588E-03     .326E-03                                     
RMM:   4     -.247440727292E+02    -.16310E-02    -.31448E-06  6474    .472E-03     .253E-03                                     
RMM:   5     -.247446590666E+02    -.58634E-03    -.43085E-06  5766    .473E-03     .165E-03                                     
RMM:   6     -.247445580182E+02     .10105E-03    -.23794E-06  4387    .419E-03     .335E-04                                     
RMM:   7     -.247446323463E+02    -.74328E-04    -.12120E-07  2425    .244E-03     .206E-04                                     
RMM:   8     -.247446655179E+02    -.33172E-04    -.12500E-07  2526    .255E-03     .615E-05                                     
RMM:   9     -.247446706238E+02    -.51059E-05    -.51547E-08  2064    .249E-03                                                  
  938 T=  2950. E= -.19787694E+02 F= -.24744671E+02 E0= -.24663312E+02  EK=  .49570E+01 SP=  .00E+00 SK=  .00E+00 mag=      1.000
       N       E                     dE             d eps       ncg     rms          rms(c)                                      
DAV:   1     -.247370591830E+02     .76063E-02    -.97426E-01 11568    .814E+00     .724E-03                                     
RMM:   2     -.247392765653E+02    -.22174E-02    -.32017E-03 11640    .540E-02     .516E-03                                     
RMM:   3     -.247423713077E+02    -.30947E-02    -.46809E-05  7443    .880E-03     .224E-03                                     
RMM:   4     -.247439780718E+02    -.16068E-02    -.82870E-06  7179    .589E-03     .203E-03                                     
RMM:   5     -.247443281005E+02    -.35003E-03    -.51521E-06  5203    .490E-03     .131E-03                                     
RMM:   6     -.247443042675E+02     .23833E-04    -.49673E-07  3058    .306E-03                                                  
  939 T=  2950. E= -.19787667E+02 F= -.24744304E+02 E0= -.24662947E+02  EK=  .49566E+01 SP=  .00E+00 SK=  .00E+00 mag=      1.000
       N       E                     dE             d eps       ncg     rms          rms(c)                                      
DAV:   1     -.247359498672E+02     .83782E-02    -.22970E+00 11520    .988E+00     .789E-03                                     
RMM:   2     -.247389992004E+02    -.30493E-02    -.11640E-02 11538    .805E-02     .539E-03                                     
RMM:   3     -.247406274143E+02    -.16282E-02    -.19005E-04  6592    .115E-02     .367E-03                                     
RMM:   4     -.247419881899E+02    -.13608E-02    -.16473E-05  6025    .590E-03     .361E-03                                     
RMM:   5     -.247433570116E+02    -.13688E-02    -.35649E-06  6119    .455E-03     .267E-03                                     
RMM:   6     -.247439860648E+02    -.62905E-03    -.45614E-06  5545    .479E-03     .399E-04                                     
RMM:   7     -.247439534135E+02     .32651E-04    -.11408E-06  3716    .354E-03     .231E-04                                     
RMM:   8     -.247439710685E+02    -.17655E-04    -.46017E-08  2090    .243E-03                                                  
  940 T=  2949. E= -.19787672E+02 F= -.24743971E+02 E0= -.24662614E+02  EK=  .49563E+01 SP=  .00E+00 SK=  .00E+00 mag=      1.000
       N       E                     dE             d eps       ncg     rms          rms(c)                                      
DAV:   1     -.247360810632E+02     .78724E-02    -.16987E+00 11600    .920E+00     .729E-03                                     
RMM:   2     -.247385715466E+02    -.24905E-02    -.58558E-03 11708    .574E-02     .521E-03                                     
RMM:   3     -.247406958011E+02    -.21243E-02    -.10459E-04  6839    .949E-03     .338E-03                                     
RMM:   4     -.247419730104E+02    -.12772E-02    -.12790E-05  5556    .528E-03     .318E-03                                     
RMM:   5     -.247432376648E+02    -.12647E-02    -.30321E-06  6069    .450E-03     .188E-03                                     
RMM:   6     -.247436449480E+02    -.40728E-03    -.51205E-06  5427    .496E-03     .417E-04                                     
RMM:   7     -.247436487374E+02    -.37894E-05    -.15537E-07  2378    .260E-03                                                  
  941 T=  2949. E= -.19787685E+02 F= -.24743649E+02 E0= -.24662293E+02  EK=  .49560E+01 SP=  .00E+00 SK=  .00E+00 mag=      1.000
       N       E                     dE             d eps       ncg     rms          rms(c)                                      
DAV:   1     -.247291642856E+02     .14481E-01    -.16706E+00 11792    .776E+00     .786E-03                                     
RMM:   2     -.247384613200E+02    -.92970E-02    -.73564E-02 11462    .113E-01     .578E-03                                     
RMM:   3     -.247387940395E+02    -.33272E-03    -.18990E-03  8104    .200E-02     .545E-03                                     
RMM:   4     -.247401739877E+02    -.13799E-02    -.17343E-04  4464    .765E-03     .339E-03                                     
RMM:   5     -.247423946183E+02    -.22206E-02    -.99947E-06  6529    .533E-03     .174E-03                                     
RMM:   6     -.247430036023E+02    -.60898E-03    -.13430E-06  4550    .369E-03     .784E-04                                     
RMM:   7     -.247433195608E+02    -.31596E-03    -.33059E-06  5007    .443E-03     .338E-04                                     
RMM:   8     -.247433010479E+02     .18513E-04    -.43437E-07  2942    .304E-03                                                  
  942 T=  2949. E= -.19787670E+02 F= -.24743301E+02 E0= -.24661946E+02  EK=  .49556E+01 SP=  .00E+00 SK=  .00E+00 mag=      1.000
       N       E                     dE             d eps       ncg     rms          rms(c)                                      
DAV:   1     -.247345422891E+02     .87773E-02    -.26782E+00 11600    .804E+00     .751E-03                                     
RMM:   2     -.247379483608E+02    -.34061E-02    -.15097E-02 11190    .708E-02     .533E-03                                     
RMM:   3     -.247395003216E+02    -.15520E-02    -.32580E-04  6546    .116E-02     .412E-03                                     
RMM:   4     -.247405308884E+02    -.10306E-02    -.26164E-05  4479    .537E-03     .333E-03                                     
RMM:   5     -.247419804707E+02    -.14496E-02    -.35162E-06  5930    .446E-03     .234E-03                                     
RMM:   6     -.247429847604E+02    -.10043E-02    -.53392E-06  6009    .511E-03     .396E-04                                     
RMM:   7     -.247429650032E+02     .19757E-04    -.67920E-07  3323    .324E-03                                                  
  943 T=  2949. E= -.19787664E+02 F= -.24742965E+02 E0= -.24661611E+02  EK=  .49553E+01 SP=  .00E+00 SK=  .00E+00 mag=      1.000
       N       E                     dE             d eps       ncg     rms          rms(c)                                      
DAV:   1     -.247350806629E+02     .79041E-02    -.17804E+00 11128    .774E+00     .737E-03                                     
RMM:   2     -.247376171316E+02    -.25365E-02    -.64550E-03 11115    .477E-02     .522E-03                                     
RMM:   3     -.247401223211E+02    -.25052E-02    -.73611E-05  6608    .736E-03     .273E-03                                     
RMM:   4     -.247417644591E+02    -.16421E-02    -.73313E-06  6741    .515E-03     .341E-03                                     
RMM:   5     -.247425694095E+02    -.80495E-03    -.25024E-06  4874    .407E-03     .136E-03                                     
RMM:   6     -.247426350563E+02    -.65647E-04    -.21678E-06  4544    .414E-03     .404E-04                                     
RMM:   7     -.247426408050E+02    -.57487E-05    -.73074E-08  2084    .255E-03                                                  
  944 T=  2949. E= -.19787668E+02 F= -.24742641E+02 E0= -.24661287E+02  EK=  .49550E+01 SP=  .00E+00 SK=  .00E+00 mag=      1.000
       N       E                     dE             d eps       ncg     rms          rms(c)                                      
DAV:   1     -.247345367988E+02     .80983E-02    -.29565E+00 11544    .996E+00     .742E-03                                     
RMM:   2     -.247372756324E+02    -.27388E-02    -.84542E-03 11401    .697E-02     .531E-03                                     
RMM:   3     -.247393355096E+02    -.20599E-02    -.10347E-04  6996    .985E-03     .338E-03                                     
RMM:   4     -.247406084472E+02    -.12729E-02    -.90004E-06  5739    .524E-03     .339E-03                                     
RMM:   5     -.247418727874E+02    -.12643E-02    -.24698E-06  5991    .433E-03     .207E-03                                     
RMM:   6     -.247423226580E+02    -.44987E-03    -.40066E-06  5178    .461E-03     .408E-04                                     
RMM:   7     -.247423029351E+02     .19723E-04    -.30070E-07  2690    .286E-03                                                  
  945 T=  2949. E= -.19787655E+02 F= -.24742303E+02 E0= -.24660951E+02  EK=  .49546E+01 SP=  .00E+00 SK=  .00E+00 mag=      1.000
       N       E                     dE             d eps       ncg     rms          rms(c)                                      
DAV:   1     -.247322744662E+02     .10048E-01    -.53494E+00 11952    .107E+01     .799E-03                                     
RMM:   2     -.247369742767E+02    -.46998E-02    -.28135E-02 12123    .116E-01     .541E-03                                     
RMM:   3     -.247381777469E+02    -.12035E-02    -.40020E-04  7738    .151E-02     .470E-03                                     
RMM:   4     -.247386853033E+02    -.50756E-03    -.31698E-05  4175    .602E-03     .370E-03                                     
RMM:   5     -.247416307092E+02    -.29454E-02    -.54795E-06  7159    .568E-03     .713E-04                                     
RMM:   6     -.247420016284E+02    -.37092E-03    -.25438E-06  4823    .394E-03     .521E-04                                     
RMM:   7     -.247420005405E+02     .10879E-05    -.31995E-07  2690    .275E-03                                                  
  946 T=  2948. E= -.19787675E+02 F= -.24742001E+02 E0= -.24660649E+02  EK=  .49543E+01 SP=  .00E+00 SK=  .00E+00 mag=      1.000
