       N       E                     dE             d eps       ncg     rms          rms(c)                                      
DAV:   1      .111276788611E+04     .11128E+04    -.62920E+04 16320    .996E+02                                                  
DAV:   2      .171151603314E+02    -.10957E+04    -.10390E+04 16864    .279E+02                                                  
DAV:   3     -.255063036433E+02    -.42621E+02    -.42061E+02 18120    .672E+01                                                  
DAV:   4     -.258852870465E+02    -.37898E+00    -.37845E+00 18008    .607E+00                                                  
DAV:   5     -.258899754050E+02    -.46884E-02    -.46882E-02 18232    .574E-01     .167E+01                                     
RMM:   6     -.243653626177E+02     .15246E+01    -.57381E+00 16321    .811E+00     .106E+01                                     
RMM:   7     -.304072749056E+02    -.60419E+01    -.11724E+01 16363    .699E+00     .872E+00                                     
RMM:   8     -.261910129704E+02     .42163E+01    -.89874E+00 16382    .557E+00     .495E+00                                     
RMM:   9     -.269037652498E+02    -.71275E+00    -.25176E+00 16416    .282E+00     .494E+00                                     
RMM:  10     -.250027381404E+02     .19010E+01    -.93226E-01 16413    .192E+00     .942E-01                                     
RMM:  11     -.249644198976E+02     .38318E-01    -.10373E-01 16422    .815E-01     .242E-01                                     
RMM:  12     -.249619745459E+02     .24454E-02    -.45044E-03 16447    .175E-01     .138E-01                                     
RMM:  13     -.249633593618E+02    -.13848E-02    -.13241E-03 16361    .111E-01     .529E-02                                     
RMM:  14     -.249640190659E+02    -.65970E-03    -.72849E-05 10507    .257E-02     .227E-02                                     
RMM:  15     -.249642275171E+02    -.20845E-03    -.35579E-05  9876    .184E-02     .847E-03                                     
RMM:  16     -.249642610106E+02    -.33494E-04    -.67682E-06  9534    .770E-03     .347E-03                                     
RMM:  17     -.249642602732E+02     .73746E-06    -.12929E-06  5607    .370E-03                                                  
    1 T=  3096. E= -.19761157E+02 F= -.24964260E+02 E0= -.24883495E+02  EK=  .52031E+01 SP=  .00E+00 SK=  .00E+00 mag=      1.000
       N       E                     dE             d eps       ncg     rms          rms(c)                                      
DAV:   1     -.245089055323E+02     .45536E+00    -.15544E-01 17112    .163E-01     .301E-01                                     
RMM:   2     -.246485714280E+02    -.13967E+00    -.98072E-04 10895    .345E-02     .217E-01                                     
RMM:   3     -.249419857017E+02    -.29341E+00    -.13535E-03 11606    .392E-02     .225E-02                                     
RMM:   4     -.249603011981E+02    -.18315E-01    -.37615E-05 10144    .166E-02     .136E-02                                     
RMM:   5     -.249643595528E+02    -.40584E-02    -.34038E-05  9880    .101E-02     .219E-03                                     
RMM:   6     -.249640913547E+02     .26820E-03    -.12112E-05  5145    .446E-03     .903E-04                                     
RMM:   7     -.249643975559E+02    -.30620E-03    -.60289E-06  4010    .328E-03     .250E-04                                     
RMM:   8     -.249643955036E+02     .20523E-05    -.39898E-06  3720    .295E-03                                                  
    2 T=  3096. E= -.19761135E+02 F= -.24964396E+02 E0= -.24883630E+02  EK=  .52033E+01 SP=  .00E+00 SK=  .00E+00 mag=      1.000
       N       E                     dE             d eps       ncg     rms          rms(c)                                      
DAV:   1     -.249108691334E+02     .53528E-01    -.26074E-01 12464    .283E+00     .417E-02                                     
RMM:   2     -.249270408339E+02    -.16172E-01    -.10078E-02 11048    .730E-02     .275E-02                                     
RMM:   3     -.249606194371E+02    -.33579E-01    -.37431E-04 11139    .243E-02     .949E-03                                     
RMM:   4     -.249639145792E+02    -.32951E-02    -.22862E-05  9542    .870E-03     .264E-03                                     
RMM:   5     -.249641235624E+02    -.20898E-03    -.10428E-05  5106    .417E-03     .142E-03                                     
RMM:   6     -.249644374425E+02    -.31388E-03    -.20799E-05  5692    .512E-03     .534E-04                                     
RMM:   7     -.249645509507E+02    -.11351E-03    -.49911E-06  3768    .358E-03     .336E-04                                     
RMM:   8     -.249645470685E+02     .38822E-05    -.17127E-06  3065    .286E-03                                                  
    3 T=  3097. E= -.19761130E+02 F= -.24964547E+02 E0= -.24883782E+02  EK=  .52034E+01 SP=  .00E+00 SK=  .00E+00 mag=      1.000
       N       E                     dE             d eps       ncg     rms          rms(c)                                      
DAV:   1     -.249570941130E+02     .74568E-02    -.16936E+00 13096    .752E+00     .921E-03                                     
RMM:   2     -.249606246626E+02    -.35305E-02    -.15939E-03 11607    .441E-02     .478E-03                                     
RMM:   3     -.249624046574E+02    -.17800E-02    -.38877E-05  7765    .853E-03     .345E-03                                     
RMM:   4     -.249645893261E+02    -.21847E-02    -.19903E-05  7870    .733E-03     .120E-03                                     
RMM:   5     -.249646868699E+02    -.97544E-04    -.55965E-06  4859    .440E-03     .385E-04                                     
RMM:   6     -.249646973856E+02    -.10516E-04    -.27148E-06  3968    .384E-03                                                  
    4 T=  3097. E= -.19761123E+02 F= -.24964697E+02 E0= -.24883931E+02  EK=  .52036E+01 SP=  .00E+00 SK=  .00E+00 mag=      1.000
       N       E                     dE             d eps       ncg     rms          rms(c)                                      
DAV:   1     -.249522248344E+02     .12462E-01    -.17520E+00 11968    .765E+00     .906E-03                                     
RMM:   2     -.249635120555E+02    -.11287E-01    -.50189E-02 11204    .121E-01     .293E-03                                     
RMM:   3     -.249640015143E+02    -.48946E-03    -.14820E-03  8208    .199E-02     .179E-03                                     
RMM:   4     -.249642627145E+02    -.26120E-03    -.27208E-04  4587    .761E-03     .126E-03                                     
RMM:   5     -.249646249265E+02    -.36221E-03    -.18350E-05  3879    .410E-03     .577E-04                                     
RMM:   6     -.249648353200E+02    -.21039E-03    -.28962E-06  4726    .418E-03     .214E-04                                     
RMM:   7     -.249648748156E+02    -.39496E-04    -.59208E-06  3859    .413E-03     .130E-04                                     
RMM:   8     -.249648769547E+02    -.21391E-05    -.79975E-07  2706    .281E-03                                                  
    5 T=  3097. E= -.19761142E+02 F= -.24964877E+02 E0= -.24884111E+02  EK=  .52037E+01 SP=  .00E+00 SK=  .00E+00 mag=      1.000
       N       E                     dE             d eps       ncg     rms          rms(c)                                      
DAV:   1     -.249572834437E+02     .75914E-02    -.12156E+00 11288    .624E+00     .791E-03                                     
RMM:   2     -.249634909864E+02    -.62075E-02    -.26054E-03 10582    .323E-02     .241E-03                                     
RMM:   3     -.249640077010E+02    -.51671E-03    -.89136E-05  7113    .783E-03     .117E-03                                     
RMM:   4     -.249645365698E+02    -.52887E-03    -.85884E-06  4163    .405E-03     .837E-04                                     
RMM:   5     -.249649553748E+02    -.41881E-03    -.21594E-06  4476    .380E-03     .257E-04                                     
RMM:   6     -.249650439505E+02    -.88576E-04    -.10353E-06  3780    .338E-03     .124E-04                                     
RMM:   7     -.249650548012E+02    -.10851E-04    -.13122E-07  2367    .273E-03                                                  
    6 T=  3097. E= -.19761158E+02 F= -.24965055E+02 E0= -.24884288E+02  EK=  .52039E+01 SP=  .00E+00 SK=  .00E+00 mag=      1.000
       N       E                     dE             d eps       ncg     rms          rms(c)                                      
DAV:   1     -.249575731677E+02     .74708E-02    -.23195E+00 11576    .830E+00     .796E-03                                     
RMM:   2     -.249644775488E+02    -.69044E-02    -.15973E-03 10886    .373E-02     .283E-03                                     
RMM:   3     -.249645077416E+02    -.30193E-04    -.24223E-05  8255    .805E-03     .169E-03                                     
RMM:   4     -.249645264211E+02    -.18679E-04    -.25912E-06  4154    .375E-03                                                  
    7 T=  3097. E= -.19760465E+02 F= -.24964526E+02 E0= -.24883759E+02  EK=  .52041E+01 SP=  .00E+00 SK=  .00E+00 mag=      1.000
       N       E                     dE             d eps       ncg     rms          rms(c)                                      
DAV:   1     -.249572156104E+02     .72921E-02    -.24370E+00 11464    .780E+00     .874E-03                                     
RMM:   2     -.249632412724E+02    -.60257E-02    -.64657E-04 11243    .340E-02     .394E-03                                     
RMM:   3     -.249648620724E+02    -.16208E-02    -.29318E-05  9815    .983E-03     .165E-03                                     
RMM:   4     -.249650795316E+02    -.21746E-03    -.18303E-05  5522    .585E-03     .627E-04                                     
RMM:   5     -.249652928726E+02    -.21334E-03    -.13011E-06  4245    .373E-03     .652E-04                                     
RMM:   6     -.249653584805E+02    -.65608E-04    -.39410E-07  3029    .295E-03     .398E-04                                     
RMM:   7     -.249653699028E+02    -.11422E-04    -.31976E-07  2468    .269E-03                                                  
    8 T=  3097. E= -.19761143E+02 F= -.24965370E+02 E0= -.24884603E+02  EK=  .52042E+01 SP=  .00E+00 SK=  .00E+00 mag=      1.000
       N       E                     dE             d eps       ncg     rms          rms(c)                                      
DAV:   1     -.249568519545E+02     .85065E-02    -.16074E+00 11752    .805E+00     .758E-03                                     
RMM:   2     -.249644283358E+02    -.75764E-02    -.14974E-02 11440    .634E-02     .230E-03                                     
RMM:   3     -.249650685382E+02    -.64020E-03    -.58276E-04  7743    .112E-02     .201E-03                                     
RMM:   4     -.249652177007E+02    -.14916E-03    -.12048E-04  5072    .521E-03     .131E-03                                     
RMM:   5     -.249653787255E+02    -.16102E-03    -.52537E-06  5191    .426E-03     .368E-04                                     
RMM:   6     -.249655001510E+02    -.12143E-03    -.15958E-06  3718    .344E-03     .224E-04                                     
RMM:   7     -.249655443461E+02    -.44195E-04    -.15647E-06  3326    .339E-03     .136E-04                                     
RMM:   8     -.249655484546E+02    -.41085E-05    -.33597E-07  2676    .289E-03                                                  
    9 T=  3097. E= -.19761154E+02 F= -.24965548E+02 E0= -.24884781E+02  EK=  .52044E+01 SP=  .00E+00 SK=  .00E+00 mag=      1.000
       N       E                     dE             d eps       ncg     rms          rms(c)                                      
DAV:   1     -.249553631818E+02     .10181E-01    -.20976E+00 12816    .928E+00     .855E-03                                     
RMM:   2     -.249645069015E+02    -.91437E-02    -.25561E-02 11656    .134E-01     .194E-03                                     
RMM:   3     -.249652362366E+02    -.72934E-03    -.34983E-04  8507    .181E-02     .115E-03                                     
RMM:   4     -.249654008399E+02    -.16460E-03    -.27231E-05  5048    .659E-03     .702E-04                                     
RMM:   5     -.249656563437E+02    -.25550E-03    -.42190E-06  5194    .471E-03     .234E-04                                     
RMM:   6     -.249656992047E+02    -.42861E-04    -.14889E-06  3903    .355E-03     .912E-05                                     
RMM:   7     -.249657084626E+02    -.92579E-05    -.22165E-07  2449    .282E-03                                                  
   10 T=  3097. E= -.19761145E+02 F= -.24965708E+02 E0= -.24884940E+02  EK=  .52046E+01 SP=  .00E+00 SK=  .00E+00 mag=      1.000
       N       E                     dE             d eps       ncg     rms          rms(c)                                      
DAV:   1     -.249563693434E+02     .93299E-02    -.11393E+00 12024    .795E+00     .819E-03                                     
RMM:   2     -.249650617317E+02    -.86924E-02    -.19824E-02 10969    .108E-01     .287E-03                                     
RMM:   3     -.249655906111E+02    -.52888E-03    -.37871E-04  8303    .163E-02     .151E-03                                     
RMM:   4     -.249656516313E+02    -.61020E-04    -.25430E-05  5536    .655E-03     .847E-04                                     
RMM:   5     -.249658005158E+02    -.14888E-03    -.30532E-06  4086    .384E-03     .400E-04                                     
RMM:   6     -.249658586101E+02    -.58094E-04    -.81165E-07  3403    .318E-03     .141E-04                                     
RMM:   7     -.249658803654E+02    -.21755E-04    -.35080E-07  2567    .289E-03                                                  
   11 T=  3097. E= -.19761148E+02 F= -.24965880E+02 E0= -.24885112E+02  EK=  .52047E+01 SP=  .00E+00 SK=  .00E+00 mag=      1.000
       N       E                     dE             d eps       ncg     rms          rms(c)                                      
DAV:   1     -.249547357827E+02     .11123E-01    -.15087E+00 11992    .685E+00     .841E-03                                     
RMM:   2     -.249651042437E+02    -.10368E-01    -.36930E-02 11049    .112E-01     .282E-03                                     
RMM:   3     -.249655013531E+02    -.39711E-03    -.11435E-03  8008    .181E-02     .154E-03                                     
RMM:   4     -.249657257267E+02    -.22437E-03    -.62068E-05  4843    .640E-03     .102E-03                                     
RMM:   5     -.249659550892E+02    -.22936E-03    -.85449E-06  5628    .493E-03     .353E-04                                     
RMM:   6     -.249659905601E+02    -.35471E-04    -.84212E-07  3177    .289E-03     .215E-04                                     
RMM:   7     -.249660324748E+02    -.41915E-04    -.12462E-06  3864    .331E-03     .909E-05                                     
RMM:   8     -.249660471654E+02    -.14691E-04    -.48085E-07  3125    .291E-03                                                  
   12 T=  3097. E= -.19761145E+02 F= -.24966047E+02 E0= -.24885279E+02  EK=  .52049E+01 SP=  .00E+00 SK=  .00E+00 mag=      1.000
       N       E                     dE             d eps       ncg     rms          rms(c)                                      
DAV:   1     -.249587284401E+02     .73040E-02    -.16393E+00 11144    .805E+00     .789E-03                                     
RMM:   2     -.249653839293E+02    -.66555E-02    -.23437E-04 10619    .233E-02     .234E-03                                     
RMM:   3     -.249656517103E+02    -.26778E-03    -.84024E-06  7674    .664E-03     .149E-03                                     
RMM:   4     -.249657700931E+02    -.11838E-03    -.28820E-06  5184    .413E-03     .917E-04                                     
RMM:   5     -.249661844651E+02    -.41437E-03    -.26243E-06  4904    .422E-03     .252E-04                                     
RMM:   6     -.249662125708E+02    -.28106E-04    -.77884E-07  3482    .334E-03                                                  
   13 T=  3098. E= -.19761139E+02 F= -.24966213E+02 E0= -.24885444E+02  EK=  .52051E+01 SP=  .00E+00 SK=  .00E+00 mag=      1.000
       N       E                     dE             d eps       ncg     rms          rms(c)                                      
DAV:   1     -.249565157467E+02     .96687E-02    -.72639E-01 12832    .825E+00     .820E-03                                     
RMM:   2     -.249656506581E+02    -.91349E-02    -.23480E-02 11821    .132E-01     .335E-03                                     
RMM:   3     -.249659864439E+02    -.33579E-03    -.33269E-04  9844    .178E-02     .129E-03                                     
RMM:   4     -.249660990761E+02    -.11263E-03    -.40961E-05  5080    .607E-03     .107E-03                                     
RMM:   5     -.249662148293E+02    -.11575E-03    -.29330E-06  4256    .351E-03     .772E-04                                     
RMM:   6     -.249663710720E+02    -.15624E-03    -.18989E-06  4188    .363E-03     .182E-04                                     
RMM:   7     -.249663783668E+02    -.72948E-05    -.13603E-06  3680    .343E-03                                                  
   14 T=  3098. E= -.19761133E+02 F= -.24966378E+02 E0= -.24885609E+02  EK=  .52052E+01 SP=  .00E+00 SK=  .00E+00 mag=      1.000
       N       E                     dE             d eps       ncg     rms          rms(c)                                      
DAV:   1     -.249585886442E+02     .77824E-02    -.14329E+00 11984    .846E+00     .801E-03                                     
RMM:   2     -.249657701683E+02    -.71815E-02    -.51863E-03 11439    .626E-02     .183E-03                                     
RMM:   3     -.249663004962E+02    -.53033E-03    -.94162E-05  7622    .103E-02     .123E-03                                     
RMM:   4     -.249664278840E+02    -.12739E-03    -.98134E-06  4940    .498E-03     .549E-04                                     
RMM:   5     -.249665539322E+02    -.12605E-03    -.38689E-06  5130    .477E-03     .144E-04                                     
RMM:   6     -.249665577628E+02    -.38306E-05    -.32984E-07  2674    .287E-03                                                  
   15 T=  3098. E= -.19761138E+02 F= -.24966558E+02 E0= -.24885788E+02  EK=  .52054E+01 SP=  .00E+00 SK=  .00E+00 mag=      1.000
       N       E                     dE             d eps       ncg     rms          rms(c)                                      
DAV:   1     -.249589565390E+02     .75974E-02    -.10996E+00 11576    .841E+00     .793E-03                                     
RMM:   2     -.249658654281E+02    -.69089E-02    -.29386E-03 11624    .534E-02     .236E-03                                     
RMM:   3     -.249662799858E+02    -.41456E-03    -.47111E-05  7837    .907E-03     .108E-03                                     
RMM:   4     -.249664481254E+02    -.16814E-03    -.54762E-06  4878    .452E-03     .868E-04                                     
RMM:   5     -.249666710535E+02    -.22293E-03    -.24471E-06  5611    .441E-03     .252E-04                                     
RMM:   6     -.249667264523E+02    -.55399E-04    -.25579E-06  3982    .375E-03     .120E-04                                     
RMM:   7     -.249667314306E+02    -.49783E-05    -.38868E-07  2638    .277E-03                                                  
   16 T=  3098. E= -.19761135E+02 F= -.24966731E+02 E0= -.24885961E+02  EK=  .52056E+01 SP=  .00E+00 SK=  .00E+00 mag=      1.000
       N       E                     dE             d eps       ncg     rms          rms(c)                                      
DAV:   1     -.249506938553E+02     .16033E-01    -.19437E+00 11560    .904E+00     .890E-03                                     
RMM:   2     -.249660129088E+02    -.15319E-01    -.86143E-02 11094    .140E-01     .314E-03                                     
RMM:   3     -.249666255289E+02    -.61262E-03    -.21058E-03  8454    .200E-02     .173E-03                                     
RMM:   4     -.249667260549E+02    -.10053E-03    -.22304E-04  4408    .757E-03     .143E-03                                     
RMM:   5     -.249668108986E+02    -.84844E-04    -.21577E-05  3253    .372E-03     .957E-04                                     
RMM:   6     -.249668878799E+02    -.76981E-04    -.54629E-06  5244    .447E-03     .287E-04                                     
RMM:   7     -.249668971884E+02    -.93084E-05    -.23109E-07  2189    .251E-03                                                  
   17 T=  3098. E= -.19761125E+02 F= -.24966897E+02 E0= -.24886127E+02  EK=  .52058E+01 SP=  .00E+00 SK=  .00E+00 mag=      1.000
       N       E                     dE             d eps       ncg     rms          rms(c)                                      
DAV:   1     -.249524397630E+02     .14448E-01    -.31955E+00 11368    .938E+00     .947E-03                                     
RMM:   2     -.249660540893E+02    -.13614E-01    -.69319E-02 11314    .162E-01     .308E-03                                     
RMM:   3     -.249667736105E+02    -.71952E-03    -.14540E-03  8779    .224E-02     .154E-03                                     
RMM:   4     -.249669148239E+02    -.14121E-03    -.88961E-05  4176    .738E-03     .122E-03                                     
RMM:   5     -.249669839813E+02    -.69157E-04    -.95088E-06  4219    .422E-03     .744E-04                                     
RMM:   6     -.249670584682E+02    -.74487E-04    -.13039E-06  3702    .340E-03     .318E-04                                     
RMM:   7     -.249670804852E+02    -.22017E-04    -.94273E-07  3543    .331E-03                                                  
   18 T=  3098. E= -.19761130E+02 F= -.24967080E+02 E0= -.24886310E+02  EK=  .52060E+01 SP=  .00E+00 SK=  .00E+00 mag=      1.000
       N       E                     dE             d eps       ncg     rms          rms(c)                                      
DAV:   1     -.249597475765E+02     .73109E-02    -.24568E+00 11424    .879E+00     .789E-03                                     
RMM:   2     -.249663919606E+02    -.66444E-02    -.91634E-04 11418    .391E-02     .362E-03                                     
RMM:   3     -.249669601533E+02    -.56819E-03    -.19040E-05  7877    .817E-03     .217E-03                                     
RMM:   4     -.249669269896E+02     .33164E-04    -.48212E-06  6228    .511E-03     .967E-04                                     
RMM:   5     -.249670359927E+02    -.10900E-03    -.63391E-07  3290    .292E-03     .502E-04                                     
RMM:   6     -.249672024664E+02    -.16647E-03    -.13184E-06  4238    .343E-03     .251E-04                                     
RMM:   7     -.249672501223E+02    -.47656E-04    -.21638E-06  4204    .356E-03     .100E-04                                     
RMM:   8     -.249672606072E+02    -.10485E-04    -.12454E-06  3326    .328E-03                                                  
   19 T=  3098. E= -.19761132E+02 F= -.24967261E+02 E0= -.24886490E+02  EK=  .52061E+01 SP=  .00E+00 SK=  .00E+00 mag=      1.000
       N       E                     dE             d eps       ncg     rms          rms(c)                                      
DAV:   1     -.249596295772E+02     .76205E-02    -.19266E+00 11968    .795E+00     .791E-03                                     
RMM:   2     -.249667048034E+02    -.70752E-02    -.35159E-03 11269    .505E-02     .317E-03                                     
RMM:   3     -.249669913057E+02    -.28650E-03    -.49859E-05  7758    .933E-03     .206E-03                                     
RMM:   4     -.249671815417E+02    -.19024E-03    -.49484E-06  4974    .446E-03     .115E-03                                     
RMM:   5     -.249673732758E+02    -.19173E-03    -.35908E-06  6418    .464E-03     .498E-04                                     
RMM:   6     -.249673958302E+02    -.22554E-04    -.24086E-07  2609    .233E-03                                                  
   20 T=  3098. E= -.19761089E+02 F= -.24967396E+02 E0= -.24886625E+02  EK=  .52063E+01 SP=  .00E+00 SK=  .00E+00 mag=      1.000
       N       E                     dE             d eps       ncg     rms          rms(c)                                      
DAV:   1     -.249589496018E+02     .84237E-02    -.13576E+00 12472    .775E+00     .798E-03                                     
RMM:   2     -.249668613494E+02    -.79117E-02    -.12035E-02 11304    .971E-02     .346E-03                                     
RMM:   3     -.249673011136E+02    -.43976E-03    -.17742E-04  7784    .125E-02     .206E-03                                     
RMM:   4     -.249674561767E+02    -.15506E-03    -.18316E-05  4945    .537E-03     .132E-03                                     
RMM:   5     -.249675723932E+02    -.11622E-03    -.79853E-06  6901    .609E-03     .344E-04                                     
RMM:   6     -.249675840979E+02    -.11705E-04    -.48721E-07  2753    .264E-03                                                  
   21 T=  3098. E= -.19761097E+02 F= -.24967584E+02 E0= -.24886812E+02  EK=  .52065E+01 SP=  .00E+00 SK=  .00E+00 mag=      1.000
       N       E                     dE             d eps       ncg     rms          rms(c)                                      
DAV:   1     -.249595508906E+02     .80215E-02    -.24675E+00 12224    .787E+00     .795E-03                                     
RMM:   2     -.249669775595E+02    -.74267E-02    -.77021E-03 11101    .708E-02     .285E-03                                     
RMM:   3     -.249674605422E+02    -.48298E-03    -.11682E-04  7829    .112E-02     .160E-03                                     
RMM:   4     -.249676901415E+02    -.22960E-03    -.11685E-05  5348    .525E-03     .656E-04                                     
RMM:   5     -.249677699058E+02    -.79764E-04    -.28482E-06  4769    .422E-03     .296E-04                                     
RMM:   6     -.249677889995E+02    -.19094E-04    -.17305E-06  3672    .359E-03                                                  
   22 T=  3098. E= -.19761121E+02 F= -.24967789E+02 E0= -.24887017E+02  EK=  .52067E+01 SP=  .00E+00 SK=  .00E+00 mag=      1.000
       N       E                     dE             d eps       ncg     rms          rms(c)                                      
DAV:   1     -.249587559955E+02     .90139E-02    -.20247E+00 12384    .954E+00     .814E-03                                     
RMM:   2     -.249671847352E+02    -.84287E-02    -.17579E-02 11460    .101E-01     .264E-03                                     
RMM:   3     -.249677626681E+02    -.57793E-03    -.36152E-04  8340    .165E-02     .103E-03                                     
RMM:   4     -.249678491242E+02    -.86456E-04    -.31634E-05  4537    .613E-03     .672E-04                                     
RMM:   5     -.249679430849E+02    -.93961E-04    -.48204E-06  4530    .441E-03     .378E-04                                     
RMM:   6     -.249679700976E+02    -.27013E-04    -.23039E-06  3891    .370E-03                                                  
   23 T=  3099. E= -.19761120E+02 F= -.24967970E+02 E0= -.24887198E+02  EK=  .52069E+01 SP=  .00E+00 SK=  .00E+00 mag=      1.000
       N       E                     dE             d eps       ncg     rms          rms(c)                                      
DAV:   1     -.249596098522E+02     .83332E-02    -.10812E+00 12312    .837E+00     .797E-03                                     
RMM:   2     -.249673962404E+02    -.77864E-02    -.11229E-02 11436    .771E-02     .239E-03                                     
RMM:   3     -.249679338534E+02    -.53761E-03    -.22865E-04  7715    .133E-02     .126E-03                                     
RMM:   4     -.249680611215E+02    -.12727E-03    -.20459E-05  5191    .598E-03     .514E-04                                     
RMM:   5     -.249681367453E+02    -.75624E-04    -.59984E-06  5075    .515E-03     .179E-04                                     
RMM:   6     -.249681517377E+02    -.14992E-04    -.22473E-06  3444    .359E-03                                                  
   24 T=  3099. E= -.19761119E+02 F= -.24968152E+02 E0= -.24887379E+02  EK=  .52070E+01 SP=  .00E+00 SK=  .00E+00 mag=      1.000
       N       E                     dE             d eps       ncg     rms          rms(c)                                      
DAV:   1     -.249592290555E+02     .89077E-02    -.23742E+00 11648    .824E+00     .792E-03                                     
RMM:   2     -.249674752417E+02    -.82462E-02    -.16124E-02 11163    .690E-02     .270E-03                                     
RMM:   3     -.249680022038E+02    -.52696E-03    -.43672E-04  7559    .131E-02     .143E-03                                     
RMM:   4     -.249681499187E+02    -.14771E-03    -.48738E-05  5414    .637E-03     .806E-04                                     
RMM:   5     -.249682394504E+02    -.89532E-04    -.61566E-06  4554    .468E-03     .393E-04                                     
RMM:   6     -.249683007971E+02    -.61347E-04    -.24062E-06  3954    .381E-03     .190E-04                                     
RMM:   7     -.249683198105E+02    -.19013E-04    -.19982E-06  3547    .363E-03                                                  
   25 T=  3099. E= -.19761104E+02 F= -.24968320E+02 E0= -.24887547E+02  EK=  .52072E+01 SP=  .00E+00 SK=  .00E+00 mag=      1.000
       N       E                     dE             d eps       ncg     rms          rms(c)                                      
DAV:   1     -.249609867992E+02     .73140E-02    -.12803E+00 11848    .762E+00     .782E-03                                     
RMM:   2     -.249677853202E+02    -.67985E-02    -.99015E-04 11128    .404E-02     .245E-03                                     
RMM:   3     -.249681984692E+02    -.41315E-03    -.16150E-05  7845    .832E-03     .132E-03                                     
RMM:   4     -.249684004329E+02    -.20196E-03    -.46290E-06  5540    .532E-03     .553E-04                                     
RMM:   5     -.249684634866E+02    -.63054E-04    -.18216E-06  4150    .381E-03     .347E-04                                     
RMM:   6     -.249685077233E+02    -.44237E-04    -.63837E-06  4634    .473E-03     .151E-04                                     
RMM:   7     -.249685108050E+02    -.30817E-05    -.78131E-07  2987    .315E-03                                                  
   26 T=  3099. E= -.19761112E+02 F= -.24968511E+02 E0= -.24887737E+02  EK=  .52074E+01 SP=  .00E+00 SK=  .00E+00 mag=      1.000
       N       E                     dE             d eps       ncg     rms          rms(c)                                      
DAV:   1     -.249598945717E+02     .86132E-02    -.16217E+00 12392    .710E+00     .795E-03                                     
RMM:   2     -.249680444900E+02    -.81499E-02    -.14322E-02 11032    .883E-02     .292E-03                                     
RMM:   3     -.249684810999E+02    -.43661E-03    -.15968E-04  8328    .135E-02     .139E-03                                     
RMM:   4     -.249685846738E+02    -.10357E-03    -.16974E-05  5035    .556E-03     .771E-04                                     
RMM:   5     -.249686286098E+02    -.43936E-04    -.19001E-06  3853    .359E-03     .477E-04                                     
RMM:   6     -.249686851654E+02    -.56556E-04    -.45634E-06  4844    .461E-03     .186E-04                                     
RMM:   7     -.249686909504E+02    -.57850E-05    -.78785E-07  3102    .315E-03                                                  
   27 T=  3099. E= -.19761108E+02 F= -.24968691E+02 E0= -.24887917E+02  EK=  .52076E+01 SP=  .00E+00 SK=  .00E+00 mag=      1.000
       N       E                     dE             d eps       ncg     rms          rms(c)                                      
DAV:   1     -.249608947738E+02     .77904E-02    -.16944E+00 12368    .793E+00     .790E-03                                     
RMM:   2     -.249681518992E+02    -.72571E-02    -.55005E-03 11515    .708E-02     .213E-03                                     
RMM:   3     -.249686585175E+02    -.50662E-03    -.12577E-04  8076    .128E-02     .103E-03                                     
RMM:   4     -.249687511189E+02    -.92601E-04    -.10275E-05  5211    .568E-03     .672E-04                                     
RMM:   5     -.249688571830E+02    -.10606E-03    -.75931E-06  5146    .531E-03     .325E-04                                     
RMM:   6     -.249688752022E+02    -.18019E-04    -.50976E-06  4435    .509E-03                                                  
   28 T=  3099. E= -.19761109E+02 F= -.24968875E+02 E0= -.24888101E+02  EK=  .52078E+01 SP=  .00E+00 SK=  .00E+00 mag=      1.000
       N       E                     dE             d eps       ncg     rms          rms(c)                                      
DAV:   1     -.249612379897E+02     .76192E-02    -.13308E+00 12912    .744E+00     .790E-03                                     
RMM:   2     -.249683995038E+02    -.71615E-02    -.45232E-03 11286    .642E-02     .292E-03                                     
RMM:   3     -.249688827711E+02    -.48327E-03    -.72187E-05  8689    .124E-02     .113E-03                                     
RMM:   4     -.249688874080E+02    -.46369E-05    -.80281E-06  5376    .563E-03                                                  
   29 T=  3099. E= -.19760937E+02 F= -.24968887E+02 E0= -.24888113E+02  EK=  .52080E+01 SP=  .00E+00 SK=  .00E+00 mag=      1.000
       N       E                     dE             d eps       ncg     rms          rms(c)                                      
DAV:   1     -.249612566643E+02     .76261E-02    -.20611E+00 12448    .830E+00     .814E-03                                     
RMM:   2     -.249681500015E+02    -.68933E-02    -.24287E-03 11261    .492E-02     .213E-03                                     
RMM:   3     -.249688057558E+02    -.65575E-03    -.56718E-05  7232    .912E-03     .104E-03                                     
RMM:   4     -.249691231363E+02    -.31738E-03    -.15463E-05  6208    .691E-03     .692E-04                                     
RMM:   5     -.249692178988E+02    -.94763E-04    -.10304E-05  5284    .587E-03     .301E-04                                     
RMM:   6     -.249692332821E+02    -.15383E-04    -.97550E-06  4828    .545E-03                                                  
   30 T=  3099. E= -.19761099E+02 F= -.24969233E+02 E0= -.24888458E+02  EK=  .52081E+01 SP=  .00E+00 SK=  .00E+00 mag=      1.000
       N       E                     dE             d eps       ncg     rms          rms(c)                                      
DAV:   1     -.249621221945E+02     .70957E-02    -.11435E+00 13376    .774E+00     .778E-03                                     
RMM:   2     -.249687095696E+02    -.65874E-02    -.28611E-03 11999    .580E-02     .162E-03                                     
RMM:   3     -.249692104129E+02    -.50084E-03    -.49973E-05  7955    .114E-02     .112E-03                                     
RMM:   4     -.249693702964E+02    -.15988E-03    -.93719E-06  5518    .563E-03     .600E-04                                     
RMM:   5     -.249694115697E+02    -.41273E-04    -.86791E-06  5499    .672E-03     .213E-04                                     
RMM:   6     -.249694155644E+02    -.39947E-05    -.23502E-06  3396    .388E-03                                                  
   31 T=  3099. E= -.19761097E+02 F= -.24969416E+02 E0= -.24888640E+02  EK=  .52083E+01 SP=  .00E+00 SK=  .00E+00 mag=      1.000
       N       E                     dE             d eps       ncg     rms          rms(c)                                      
DAV:   1     -.249620311045E+02     .73805E-02    -.16261E+00 12024    .741E+00     .794E-03                                     
RMM:   2     -.249689746488E+02    -.69435E-02    -.99649E-04 10869    .361E-02     .227E-03                                     
RMM:   3     -.249694321882E+02    -.45754E-03    -.27701E-05  7655    .933E-03     .110E-03                                     
RMM:   4     -.249695290426E+02    -.96854E-04    -.30671E-06  5039    .458E-03     .373E-04                                     
RMM:   5     -.249695898340E+02    -.60791E-04    -.81837E-06  5342    .571E-03     .146E-04                                     
RMM:   6     -.249695978591E+02    -.80251E-05    -.30981E-06  3544    .397E-03                                                  
   32 T=  3100. E= -.19761096E+02 F= -.24969598E+02 E0= -.24888822E+02  EK=  .52085E+01 SP=  .00E+00 SK=  .00E+00 mag=       .999
       N       E                     dE             d eps       ncg     rms          rms(c)                                      
DAV:   1     -.249622688381E+02     .73210E-02    -.17483E+00 12864    .854E+00     .781E-03                                     
RMM:   2     -.249691156185E+02    -.68468E-02    -.17147E-03 11437    .486E-02     .282E-03                                     
RMM:   3     -.249696081938E+02    -.49258E-03    -.35781E-05  8073    .102E-02     .147E-03                                     
RMM:   4     -.249697024797E+02    -.94286E-04    -.85334E-06  5568    .541E-03     .895E-04                                     
RMM:   5     -.249697592770E+02    -.56797E-04    -.82138E-06  5955    .536E-03     .226E-04                                     
RMM:   6     -.249697720913E+02    -.12814E-04    -.25991E-06  3659    .357E-03                                                  
   33 T=  3100. E= -.19761087E+02 F= -.24969772E+02 E0= -.24888996E+02  EK=  .52087E+01 SP=  .00E+00 SK=  .00E+00 mag=       .999
       N       E                     dE             d eps       ncg     rms          rms(c)                                      
DAV:   1     -.249615304012E+02     .82289E-02    -.22722E+00 13160    .969E+00     .799E-03                                     
RMM:   2     -.249692807015E+02    -.77503E-02    -.10482E-02 11740    .959E-02     .340E-03                                     
RMM:   3     -.249697050657E+02    -.42436E-03    -.16496E-04  9746    .164E-02     .787E-04                                     
RMM:   4     -.249698554606E+02    -.15039E-03    -.24169E-05  5769    .729E-03     .703E-04                                     
RMM:   5     -.249699348416E+02    -.79381E-04    -.14694E-05  5435    .590E-03     .650E-04                                     
RMM:   6     -.249699517230E+02    -.16881E-04    -.74513E-06  4570    .496E-03                                                  
   34 T=  3100. E= -.19761083E+02 F= -.24969952E+02 E0= -.24889175E+02  EK=  .52089E+01 SP=  .00E+00 SK=  .00E+00 mag=       .999
       N       E                     dE             d eps       ncg     rms          rms(c)                                      
DAV:   1     -.249613431582E+02     .85917E-02    -.23857E+00 12776    .956E+00     .797E-03                                     
RMM:   2     -.249694949832E+02    -.81518E-02    -.15169E-02 11846    .765E-02     .182E-03                                     
RMM:   3     -.249700208006E+02    -.52582E-03    -.20459E-04  7803    .129E-02     .878E-04                                     
RMM:   4     -.249700678168E+02    -.47016E-04    -.23255E-05  5315    .581E-03     .522E-04                                     
RMM:   5     -.249701187948E+02    -.50978E-04    -.69214E-06  4948    .514E-03     .239E-04                                     
RMM:   6     -.249701330137E+02    -.14219E-04    -.45353E-06  4523    .484E-03                                                  
   35 T=  3100. E= -.19761082E+02 F= -.24970133E+02 E0= -.24889356E+02  EK=  .52091E+01 SP=  .00E+00 SK=  .00E+00 mag=       .999
       N       E                     dE             d eps       ncg     rms          rms(c)                                      
DAV:   1     -.249627381080E+02     .73807E-02    -.18186E+00 12680    .848E+00     .784E-03                                     
RMM:   2     -.249695979492E+02    -.68598E-02    -.25346E-03 11781    .543E-02     .198E-03                                     
RMM:   3     -.249702042770E+02    -.60633E-03    -.75171E-05  8089    .114E-02     .107E-03                                     
RMM:   4     -.249702584780E+02    -.54201E-04    -.77440E-06  5131    .569E-03     .625E-04                                     
RMM:   5     -.249702932071E+02    -.34729E-04    -.27577E-06  3953    .398E-03     .261E-04                                     
RMM:   6     -.249703057845E+02    -.12577E-04    -.47082E-06  4204    .469E-03                                                  
   36 T=  3100. E= -.19761074E+02 F= -.24970306E+02 E0= -.24889529E+02  EK=  .52092E+01 SP=  .00E+00 SK=  .00E+00 mag=       .999
       N       E                     dE             d eps       ncg     rms          rms(c)                                      
DAV:   1     -.249533410071E+02     .16952E-01    -.14266E+00 12968    .687E+00     .111E-02                                     
RMM:   2     -.249694600491E+02    -.16119E-01    -.95227E-02 11253    .207E-01     .381E-03                                     
RMM:   3     -.249702497067E+02    -.78966E-03    -.24483E-03  9223    .279E-02     .231E-03                                     
RMM:   4     -.249703799173E+02    -.13021E-03    -.30734E-04  5573    .954E-03     .177E-03                                     
RMM:   5     -.249704023021E+02    -.22385E-04    -.67176E-06  3576    .384E-03                                                  
   37 T=  3100. E= -.19760989E+02 F= -.24970402E+02 E0= -.24889625E+02  EK=  .52094E+01 SP=  .00E+00 SK=  .00E+00 mag=       .999
       N       E                     dE             d eps       ncg     rms          rms(c)                                      
DAV:   1     -.249626401449E+02     .77398E-02    -.29504E+00 12640    .881E+00     .807E-03                                     
RMM:   2     -.249694359776E+02    -.67958E-02    -.54725E-03 11646    .564E-02     .361E-03                                     
RMM:   3     -.249699345530E+02    -.49858E-03    -.68763E-05  8407    .103E-02     .201E-03                                     
RMM:   4     -.249705036085E+02    -.56906E-03    -.50392E-05  7773    .102E-02     .903E-04                                     
RMM:   5     -.249706378204E+02    -.13421E-03    -.15662E-05  5681    .714E-03     .540E-04                                     
RMM:   6     -.249706658205E+02    -.28000E-04    -.19877E-05  5329    .682E-03                                                  
   38 T=  3100. E= -.19761073E+02 F= -.24970666E+02 E0= -.24889888E+02  EK=  .52096E+01 SP=  .00E+00 SK=  .00E+00 mag=       .999
       N       E                     dE             d eps       ncg     rms          rms(c)                                      
DAV:   1     -.249542434121E+02     .16394E-01    -.15677E+00 13904    .102E+01     .968E-03                                     
RMM:   2     -.249702344991E+02    -.15991E-01    -.96737E-02 12845    .206E-01     .355E-03                                     
RMM:   3     -.249706301564E+02    -.39566E-03    -.12982E-03  8778    .248E-02     .287E-03                                     
RMM:   4     -.249707263973E+02    -.96241E-04    -.11874E-04  6188    .889E-03     .228E-03                                     
RMM:   5     -.249708012136E+02    -.74816E-04    -.19219E-05  4425    .421E-03     .135E-03                                     
RMM:   6     -.249708447249E+02    -.43511E-04    -.20105E-05  5855    .722E-03     .495E-04                                     
RMM:   7     -.249708460619E+02    -.13370E-05    -.19710E-06  3527    .376E-03                                                  
   39 T=  3100. E= -.19761075E+02 F= -.24970846E+02 E0= -.24890068E+02  EK=  .52098E+01 SP=  .00E+00 SK=  .00E+00 mag=       .999
       N       E                     dE             d eps       ncg     rms          rms(c)                                      
DAV:   1     -.249634131857E+02     .74315E-02    -.24733E+00 13304    .913E+00     .798E-03                                     
RMM:   2     -.249703590942E+02    -.69459E-02    -.42657E-03 12140    .676E-02     .307E-03                                     
RMM:   3     -.249707136666E+02    -.35457E-03    -.65030E-05  8404    .121E-02     .193E-03                                     
RMM:   4     -.249708590047E+02    -.14534E-03    -.11462E-05  5630    .608E-03     .106E-03                                     
RMM:   5     -.249709499260E+02    -.90921E-04    -.75986E-06  5484    .639E-03     .535E-04                                     
RMM:   6     -.249709980709E+02    -.48145E-04    -.10551E-05  5270    .612E-03     .275E-04                                     
RMM:   7     -.249710227971E+02    -.24726E-04    -.21084E-05  5149    .699E-03                                                  
   40 T=  3100. E= -.19761074E+02 F= -.24971023E+02 E0= -.24890244E+02  EK=  .52099E+01 SP=  .00E+00 SK=  .00E+00 mag=       .999
       N       E                     dE             d eps       ncg     rms          rms(c)                                      
DAV:   1     -.249449198544E+02     .26078E-01    -.16194E+00 13488    .906E+00     .111E-02                                     
RMM:   2     -.249715749583E+02    -.26655E-01    -.20087E-01 11952    .201E-01     .327E-03                                     
RMM:   3     -.249709943773E+02     .58058E-03    -.27213E-03  8910    .277E-02     .273E-03                                     
RMM:   4     -.249710487887E+02    -.54411E-04    -.18043E-04  5766    .959E-03     .206E-03                                     
RMM:   5     -.249709797909E+02     .68998E-04    -.19077E-05  5427    .624E-03     .145E-03                                     
RMM:   6     -.249709899564E+02    -.10165E-04    -.22489E-06  4174    .380E-03                                                  
   41 T=  3101. E= -.19760865E+02 F= -.24970990E+02 E0= -.24890211E+02  EK=  .52101E+01 SP=  .00E+00 SK=  .00E+00 mag=       .998
       N       E                     dE             d eps       ncg     rms          rms(c)                                      
DAV:   1     -.249630390694E+02     .79407E-02    -.72508E-01 13152    .696E+00     .815E-03                                     
RMM:   2     -.249699098600E+02    -.68708E-02    -.71670E-03 11782    .784E-02     .284E-03                                     
RMM:   3     -.249705484034E+02    -.63854E-03    -.14608E-04  7981    .125E-02     .145E-03                                     
RMM:   4     -.249711217381E+02    -.57333E-03    -.42019E-05  7015    .106E-02     .704E-04                                     
RMM:   5     -.249713032978E+02    -.18156E-03    -.56409E-05  6268    .103E-02     .494E-04                                     
RMM:   6     -.249713569379E+02    -.53640E-04    -.74409E-05  6037    .106E-02     .200E-04                                     
RMM:   7     -.249713698391E+02    -.12901E-04    -.86524E-06  4404    .496E-03                                                  
   42 T=  3101. E= -.19761067E+02 F= -.24971370E+02 E0= -.24890590E+02  EK=  .52103E+01 SP=  .00E+00 SK=  .00E+00 mag=       .998
       N       E                     dE             d eps       ncg     rms          rms(c)                                      
DAV:   1     -.249637049387E+02     .76520E-02    -.10524E+00 13984    .761E+00     .781E-03                                     
RMM:   2     -.249710756737E+02    -.73707E-02    -.13333E-02 12196    .884E-02     .311E-03                                     
RMM:   3     -.249714234765E+02    -.34780E-03    -.23460E-04  8649    .167E-02     .206E-03                                     
RMM:   4     -.249714501030E+02    -.26627E-04    -.21088E-05  5631    .611E-03                                                  
   43 T=  3101. E= -.19760970E+02 F= -.24971450E+02 E0= -.24890670E+02  EK=  .52105E+01 SP=  .00E+00 SK=  .00E+00 mag=       .998
       N       E                     dE             d eps       ncg     rms          rms(c)                                      
DAV:   1     -.249631150626E+02     .83084E-02    -.30058E+00 13160    .811E+00     .839E-03                                     
RMM:   2     -.249710260343E+02    -.79110E-02    -.11011E-02 12106    .842E-02     .278E-03                                     
RMM:   3     -.249713113507E+02    -.28532E-03    -.18998E-04  8292    .130E-02     .180E-03                                     
RMM:   4     -.249714976404E+02    -.18629E-03    -.24844E-05  6185    .671E-03     .972E-04                                     
RMM:   5     -.249717024820E+02    -.20484E-03    -.73345E-05  7232    .127E-02     .397E-04                                     
RMM:   6     -.249717199159E+02    -.17434E-04    -.12036E-05  5037    .622E-03                                                  
   44 T=  3101. E= -.19761066E+02 F= -.24971720E+02 E0= -.24890939E+02  EK=  .52107E+01 SP=  .00E+00 SK=  .00E+00 mag=       .998
       N       E                     dE             d eps       ncg     rms          rms(c)                                      
DAV:   1     -.249638844144E+02     .78181E-02    -.15738E+00 14360    .802E+00     .796E-03                                     
RMM:   2     -.249707162110E+02    -.68318E-02    -.13379E-02 12412    .117E-01     .257E-03                                     
RMM:   3     -.249714537839E+02    -.73757E-03    -.23388E-04  8783    .174E-02     .148E-03                                     
RMM:   4     -.249716955878E+02    -.24180E-03    -.53424E-05  6731    .101E-02     .949E-04                                     
RMM:   5     -.249718603528E+02    -.16476E-03    -.80768E-05  6620    .128E-02     .293E-04                                     
RMM:   6     -.249718885873E+02    -.28235E-04    -.27154E-05  5358    .774E-03                                                  
   45 T=  3101. E= -.19761060E+02 F= -.24971889E+02 E0= -.24891107E+02  EK=  .52108E+01 SP=  .00E+00 SK=  .00E+00 mag=       .998
       N       E                     dE             d eps       ncg     rms          rms(c)                                      
DAV:   1     -.249646142837E+02     .72461E-02    -.19719E+00 13528    .754E+00     .792E-03                                     
RMM:   2     -.249714721979E+02    -.68579E-02    -.36679E-03 12150    .648E-02     .205E-03                                     
RMM:   3     -.249719680327E+02    -.49583E-03    -.78448E-05  7868    .119E-02     .111E-03                                     
RMM:   4     -.249720529014E+02    -.84869E-04    -.33500E-05  5906    .794E-03     .556E-04                                     
RMM:   5     -.249720583106E+02    -.54092E-05    -.34401E-06  4583    .452E-03                                                  
   46 T=  3101. E= -.19761058E+02 F= -.24972058E+02 E0= -.24891277E+02  EK=  .52110E+01 SP=  .00E+00 SK=  .00E+00 mag=       .997
       N       E                     dE             d eps       ncg     rms          rms(c)                                      
DAV:   1     -.249627953173E+02     .92576E-02    -.11775E+00 13784    .752E+00     .804E-03                                     
RMM:   2     -.249717160125E+02    -.89207E-02    -.26767E-02 12160    .878E-02     .235E-03                                     
RMM:   3     -.249721308994E+02    -.41489E-03    -.12547E-03  8487    .168E-02     .116E-03                                     
RMM:   4     -.249721827803E+02    -.51881E-04    -.67451E-05  5531    .730E-03     .821E-04                                     
RMM:   5     -.249722263917E+02    -.43611E-04    -.39511E-05  5892    .936E-03     .463E-04                                     
RMM:   6     -.249722350077E+02    -.86160E-05    -.66575E-06  4556    .480E-03                                                  
   47 T=  3101. E= -.19761064E+02 F= -.24972235E+02 E0= -.24891452E+02  EK=  .52112E+01 SP=  .00E+00 SK=  .00E+00 mag=       .997
       N       E                     dE             d eps       ncg     rms          rms(c)                                      
DAV:   1     -.249650850658E+02     .71413E-02    -.13311E+00 13872    .804E+00     .779E-03                                     
RMM:   2     -.249719575261E+02    -.68725E-02    -.53575E-03 12475    .728E-02     .238E-03                                     
RMM:   3     -.249723234984E+02    -.36597E-03    -.11221E-04  8203    .119E-02     .137E-03                                     
RMM:   4     -.249723949696E+02    -.71471E-04    -.38141E-05  6341    .887E-03     .733E-04                                     
RMM:   5     -.249724032035E+02    -.82339E-05    -.25566E-06  4667    .426E-03                                                  
   48 T=  3101. E= -.19761064E+02 F= -.24972403E+02 E0= -.24891620E+02  EK=  .52113E+01 SP=  .00E+00 SK=  .00E+00 mag=       .997
       N       E                     dE             d eps       ncg     rms          rms(c)                                      
DAV:   1     -.249606829878E+02     .11712E-01    -.11532E+00 14392    .873E+00     .916E-03                                     
RMM:   2     -.249721277834E+02    -.11445E-01    -.53089E-02 12657    .189E-01     .250E-03                                     
RMM:   3     -.249725056105E+02    -.37783E-03    -.81490E-04  8645    .238E-02     .155E-03                                     
RMM:   4     -.249725325638E+02    -.26953E-04    -.59985E-05  5330    .788E-03                                                  
   49 T=  3101. E= -.19761026E+02 F= -.24972533E+02 E0= -.24891749E+02  EK=  .52115E+01 SP=  .00E+00 SK=  .00E+00 mag=       .997
       N       E                     dE             d eps       ncg     rms          rms(c)                                      
DAV:   1     -.249628198674E+02     .96857E-02    -.88799E-01 14296    .701E+00     .116E-02                                     
RMM:   2     -.249720991133E+02    -.92792E-02    -.29471E-02 12304    .127E-01     .400E-03                                     
RMM:   3     -.249724311508E+02    -.33204E-03    -.29275E-04  8875    .181E-02     .263E-03                                     
RMM:   4     -.249725083214E+02    -.77171E-04    -.15639E-05  5307    .577E-03     .201E-03                                     
RMM:   5     -.249727259647E+02    -.21764E-03    -.17156E-04  8017    .179E-02     .526E-04                                     
RMM:   6     -.249727304684E+02    -.45037E-05    -.69878E-06  4938    .506E-03                                                  
   50 T=  3101. E= -.19761057E+02 F= -.24972730E+02 E0= -.24891946E+02  EK=  .52117E+01 SP=  .00E+00 SK=  .00E+00 mag=       .996
       N       E                     dE             d eps       ncg     rms          rms(c)                                      
DAV:   1     -.249666032471E+02     .61227E-02    -.14538E+00 13768    .724E+00     .826E-03                                     
RMM:   2     -.249724213615E+02    -.58181E-02    -.11787E-03 12143    .462E-02     .401E-03                                     
RMM:   3     -.249728508567E+02    -.42950E-03    -.66754E-05  8258    .139E-02     .208E-03                                     
RMM:   4     -.249728729493E+02    -.22093E-04    -.16365E-05  5377    .606E-03                                                  
   51 T=  3102. E= -.19761031E+02 F= -.24972873E+02 E0= -.24892087E+02  EK=  .52118E+01 SP=  .00E+00 SK=  .00E+00 mag=       .996
       N       E                     dE             d eps       ncg     rms          rms(c)                                      
DAV:   1     -.249663910177E+02     .64598E-02    -.12869E+00 13848    .702E+00     .807E-03                                     
RMM:   2     -.249727174827E+02    -.63265E-02    -.13178E-03 12129    .483E-02     .260E-03                                     
RMM:   3     -.249729603761E+02    -.24289E-03    -.70796E-05  8020    .122E-02     .190E-03                                     
RMM:   4     -.249730141437E+02    -.53768E-04    -.36580E-05  6360    .816E-03     .103E-03                                     
RMM:   5     -.249730548964E+02    -.40753E-04    -.79149E-06  5627    .521E-03     .349E-04                                     
RMM:   6     -.249730636022E+02    -.87058E-05    -.95857E-07  3339    .308E-03                                                  
   52 T=  3102. E= -.19761054E+02 F= -.24973064E+02 E0= -.24892278E+02  EK=  .52120E+01 SP=  .00E+00 SK=  .00E+00 mag=       .996
       N       E                     dE             d eps       ncg     rms          rms(c)                                      
DAV:   1     -.249659843898E+02     .70705E-02    -.15105E+00 14464    .808E+00     .825E-03                                     
RMM:   2     -.249726997941E+02    -.67154E-02    -.13872E-02 12634    .116E-01     .414E-03                                     
RMM:   3     -.249731290415E+02    -.42925E-03    -.21767E-04  8545    .170E-02     .238E-03                                     
RMM:   4     -.249732110952E+02    -.82054E-04    -.27756E-05  6609    .845E-03     .148E-03                                     
RMM:   5     -.249732206565E+02    -.95613E-05    -.80893E-06  5136    .508E-03                                                  
   53 T=  3102. E= -.19761045E+02 F= -.24973221E+02 E0= -.24892434E+02  EK=  .52122E+01 SP=  .00E+00 SK=  .00E+00 mag=       .996
       N       E                     dE             d eps       ncg     rms          rms(c)                                      
DAV:   1     -.249609655885E+02     .12246E-01    -.18871E+00 14368    .812E+00     .868E-03                                     
RMM:   2     -.249727663348E+02    -.11801E-01    -.56178E-02 12514    .174E-01     .239E-03                                     
RMM:   3     -.249732889470E+02    -.52261E-03    -.14945E-03  8841    .278E-02     .143E-03                                     
RMM:   4     -.249733614003E+02    -.72453E-04    -.10265E-04  6196    .110E-02     .104E-03                                     
RMM:   5     -.249733835300E+02    -.22130E-04    -.22853E-05  5486    .591E-03                                                  
   54 T=  3102. E= -.19761041E+02 F= -.24973384E+02 E0= -.24892596E+02  EK=  .52123E+01 SP=  .00E+00 SK=  .00E+00 mag=       .995
       N       E                     dE             d eps       ncg     rms          rms(c)                                      
DAV:   1     -.249663152260E+02     .70462E-02    -.12704E+00 14472    .826E+00     .806E-03                                     
RMM:   2     -.249731471833E+02    -.68320E-02    -.14748E-02 12730    .999E-02     .289E-03                                     
RMM:   3     -.249734960558E+02    -.34887E-03    -.27048E-04  8864    .177E-02     .123E-03                                     
RMM:   4     -.249735357802E+02    -.39724E-04    -.38518E-05  6449    .789E-03     .723E-04                                     
RMM:   5     -.249735458600E+02    -.10080E-04    -.48311E-06  4158    .377E-03                                                  
   55 T=  3102. E= -.19761035E+02 F= -.24973546E+02 E0= -.24892757E+02  EK=  .52125E+01 SP=  .00E+00 SK=  .00E+00 mag=       .995
       N       E                     dE             d eps       ncg     rms          rms(c)                                      
DAV:   1     -.249675686462E+02     .59671E-02    -.14068E+00 14224    .814E+00     .814E-03                                     
RMM:   2     -.249734726858E+02    -.59040E-02    -.45492E-03 12743    .848E-02     .277E-03                                     
RMM:   3     -.249736674981E+02    -.19481E-03    -.88348E-05  8475    .141E-02     .137E-03                                     
RMM:   4     -.249736902570E+02    -.22759E-04    -.84098E-06  5384    .502E-03                                                  
   56 T=  3102. E= -.19761011E+02 F= -.24973690E+02 E0= -.24892901E+02  EK=  .52127E+01 SP=  .00E+00 SK=  .00E+00 mag=       .994
       N       E                     dE             d eps       ncg     rms          rms(c)                                      
DAV:   1     -.249676240246E+02     .60435E-02    -.13798E+00 14352    .751E+00     .792E-03                                     
RMM:   2     -.249736883747E+02    -.60644E-02    -.77449E-03 12600    .861E-02     .284E-03                                     
RMM:   3     -.249738282723E+02    -.13990E-03    -.12655E-04  8391    .128E-02     .140E-03                                     
RMM:   4     -.249738604155E+02    -.32143E-04    -.12370E-05  5756    .539E-03     .841E-04                                     
RMM:   5     -.249738780813E+02    -.17666E-04    -.26986E-06  4406    .391E-03                                                  
   57 T=  3102. E= -.19761032E+02 F= -.24973878E+02 E0= -.24893087E+02  EK=  .52128E+01 SP=  .00E+00 SK=  .00E+00 mag=       .994
       N       E                     dE             d eps       ncg     rms          rms(c)                                      
DAV:   1     -.249685458731E+02     .53145E-02    -.27047E+00 14088    .728E+00     .804E-03                                     
RMM:   2     -.249738735889E+02    -.53277E-02    -.27736E-03 12664    .744E-02     .244E-03                                     
RMM:   3     -.249740224998E+02    -.14891E-03    -.86905E-05  8200    .131E-02     .122E-03                                     
RMM:   4     -.249740333113E+02    -.10812E-04    -.72452E-06  5665    .580E-03                                                  
   58 T=  3102. E= -.19761020E+02 F= -.24974033E+02 E0= -.24893241E+02  EK=  .52130E+01 SP=  .00E+00 SK=  .00E+00 mag=       .994
       N       E                     dE             d eps       ncg     rms          rms(c)                                      
DAV:   1     -.249683615089E+02     .56610E-02    -.10437E+00 14344    .741E+00     .796E-03                                     
RMM:   2     -.249740094083E+02    -.56479E-02    -.46164E-03 12752    .862E-02     .340E-03                                     
RMM:   3     -.249741648267E+02    -.15542E-03    -.12715E-04  9077    .147E-02     .183E-03                                     
RMM:   4     -.249741875463E+02    -.22720E-04    -.12141E-05  6320    .584E-03                                                  
   59 T=  3102. E= -.19761005E+02 F= -.24974188E+02 E0= -.24893395E+02  EK=  .52132E+01 SP=  .00E+00 SK=  .00E+00 mag=       .993
       N       E                     dE             d eps       ncg     rms          rms(c)                                      
DAV:   1     -.249694442272E+02     .47206E-02    -.13810E+00 14048    .718E+00     .813E-03                                     
RMM:   2     -.249742568128E+02    -.48126E-02    -.32889E-03 12832    .749E-02     .458E-03                                     
RMM:   3     -.249743313575E+02    -.74545E-04    -.57799E-05  9388    .111E-02     .220E-03                                     
RMM:   4     -.249743600653E+02    -.28708E-04    -.38013E-06  4995    .420E-03                                                  
   60 T=  3102. E= -.19761006E+02 F= -.24974360E+02 E0= -.24893565E+02  EK=  .52134E+01 SP=  .00E+00 SK=  .00E+00 mag=       .993
       N       E                     dE             d eps       ncg     rms          rms(c)                                      
DAV:   1     -.249693362465E+02     .49951E-02    -.33206E+00 15104    .918E+00     .813E-03                                     
RMM:   2     -.249744352397E+02    -.50990E-02    -.48111E-03 14369    .984E-02     .542E-03                                     
RMM:   3     -.249745185718E+02    -.83332E-04    -.10658E-04  9955    .139E-02     .253E-03                                     
RMM:   4     -.249745471690E+02    -.28597E-04    -.83806E-06  5722    .534E-03                                                  
   61 T=  3103. E= -.19761018E+02 F= -.24974547E+02 E0= -.24893751E+02  EK=  .52135E+01 SP=  .00E+00 SK=  .00E+00 mag=       .992
       N       E                     dE             d eps       ncg     rms          rms(c)                                      
DAV:   1     -.249688893134E+02     .56293E-02    -.32478E+00 15696    .103E+01     .884E-03                                     
RMM:   2     -.249746319328E+02    -.57426E-02    -.16312E-02 14911    .155E-01     .406E-03                                     
RMM:   3     -.249747084011E+02    -.76468E-04    -.18892E-04  9280    .172E-02     .300E-03                                     
RMM:   4     -.249747094455E+02    -.10445E-05    -.12170E-05  6131    .624E-03                                                  
   62 T=  3103. E= -.19760999E+02 F= -.24974709E+02 E0= -.24893912E+02  EK=  .52137E+01 SP=  .00E+00 SK=  .00E+00 mag=       .991
       N       E                     dE             d eps       ncg     rms          rms(c)                                      
DAV:   1     -.249670765086E+02     .76319E-02    -.25276E+00 15872    .970E+00     .960E-03                                     
RMM:   2     -.249745625870E+02    -.74861E-02    -.28070E-02 15537    .181E-01     .615E-03                                     
RMM:   3     -.249748048050E+02    -.24222E-03    -.13704E-03 10652    .243E-02     .290E-03                                     
RMM:   4     -.249748215409E+02    -.16736E-04    -.70060E-05  7212    .975E-03                                                  
   63 T=  3103. E= -.19760925E+02 F= -.24974822E+02 E0= -.24894024E+02  EK=  .52139E+01 SP=  .00E+00 SK=  .00E+00 mag=       .991
       N       E                     dE             d eps       ncg     rms          rms(c)                                      
DAV:   1     -.249677686169E+02     .70362E-02    -.18974E+00 15096    .929E+00     .928E-03                                     
RMM:   2     -.249747812008E+02    -.70126E-02    -.28132E-02 15674    .154E-01     .614E-03                                     
RMM:   3     -.249749853194E+02    -.20412E-03    -.56221E-04 10412    .247E-02     .221E-03                                     
RMM:   4     -.249750275279E+02    -.42208E-04    -.38814E-05  6157    .630E-03     .131E-03                                     
RMM:   5     -.249750821918E+02    -.54664E-04    -.12120E-05  5335    .535E-03     .891E-04                                     
RMM:   6     -.249750878230E+02    -.56312E-05    -.23700E-06  4310    .385E-03                                                  
   64 T=  3103. E= -.19761002E+02 F= -.24975088E+02 E0= -.24894288E+02  EK=  .52141E+01 SP=  .00E+00 SK=  .00E+00 mag=       .990
       N       E                     dE             d eps       ncg     rms          rms(c)                                      
DAV:   1     -.249652473304E+02     .98349E-02    -.36191E+00 15592    .957E+00     .936E-03                                     
RMM:   2     -.249750711076E+02    -.98238E-02    -.60437E-02 14835    .245E-01     .422E-03                                     
RMM:   3     -.249752565436E+02    -.18544E-03    -.11930E-03  9680    .280E-02     .296E-03                                     
RMM:   4     -.249752785310E+02    -.21987E-04    -.69630E-05  6397    .910E-03                                                  
   65 T=  3103. E= -.19760999E+02 F= -.24975279E+02 E0= -.24894477E+02  EK=  .52143E+01 SP=  .00E+00 SK=  .00E+00 mag=       .990
       N       E                     dE             d eps       ncg     rms          rms(c)                                      
DAV:   1     -.249711127307E+02     .41438E-02    -.33019E+00 15400    .901E+00     .917E-03                                     
RMM:   2     -.249752013939E+02    -.40887E-02    -.50970E-03 15169    .119E-01     .757E-03                                     
RMM:   3     -.249754508573E+02    -.24946E-03    -.22764E-04 10508    .237E-02     .231E-03                                     
RMM:   4     -.249754397285E+02     .11129E-04    -.71861E-06  5986    .593E-03                                                  
   66 T=  3103. E= -.19760956E+02 F= -.24975440E+02 E0= -.24894636E+02  EK=  .52145E+01 SP=  .00E+00 SK=  .00E+00 mag=       .989
       N       E                     dE             d eps       ncg     rms          rms(c)                                      
DAV:   1     -.249711430589E+02     .43078E-02    -.29482E+00 15712    .104E+01     .859E-03                                     
RMM:   2     -.249754896353E+02    -.43466E-02    -.13757E-02 15351    .146E-01     .740E-03                                     
RMM:   3     -.249755791140E+02    -.89479E-04    -.18053E-04 10131    .165E-02     .290E-03                                     
RMM:   4     -.249756357943E+02    -.56680E-04    -.23481E-05  9398    .765E-03     .240E-03                                     
RMM:   5     -.249756614088E+02    -.25615E-04    -.46319E-06  5463    .469E-03                                                  
   67 T=  3103. E= -.19760964E+02 F= -.24975661E+02 E0= -.24894856E+02  EK=  .52147E+01 SP=  .00E+00 SK=  .00E+00 mag=       .988
       N       E                     dE             d eps       ncg     rms          rms(c)                                      
DAV:   1     -.249654786092E+02     .10157E-01    -.34406E+00 15336    .753E+00     .941E-03                                     
RMM:   2     -.249756841027E+02    -.10205E-01    -.71063E-02 13454    .235E-01     .276E-03                                     
RMM:   3     -.249758968700E+02    -.21277E-03    -.10756E-03 10322    .319E-02     .139E-03                                     
RMM:   4     -.249759085180E+02    -.11648E-04    -.62712E-05  5853    .801E-03                                                  
   68 T=  3103. E= -.19760988E+02 F= -.24975909E+02 E0= -.24895102E+02  EK=  .52149E+01 SP=  .00E+00 SK=  .00E+00 mag=       .987
       N       E                     dE             d eps       ncg     rms          rms(c)                                      
DAV:   1     -.249704250571E+02     .54718E-02    -.12477E+00 15424    .605E+00     .914E-03                                     
RMM:   2     -.249758034913E+02    -.53784E-02    -.17950E-02 13260    .147E-01     .473E-03                                     
RMM:   3     -.249760867029E+02    -.28321E-03    -.33817E-04 10526    .235E-02     .158E-03                                     
RMM:   4     -.249761274980E+02    -.40795E-04    -.35754E-05  6434    .909E-03     .973E-04                                     
RMM:   5     -.249761456360E+02    -.18138E-04    -.93942E-06  5489    .587E-03                                                  
   69 T=  3104. E= -.19760989E+02 F= -.24976146E+02 E0= -.24895337E+02  EK=  .52152E+01 SP=  .00E+00 SK=  .00E+00 mag=       .986
       N       E                     dE             d eps       ncg     rms          rms(c)                                      
DAV:   1     -.249692131542E+02     .69143E-02    -.20861E+00 14904    .606E+00     .995E-03                                     
RMM:   2     -.249762105499E+02    -.69974E-02    -.48314E-02 12802    .207E-01     .289E-03                                     
RMM:   3     -.249763668553E+02    -.15631E-03    -.89614E-04  8782    .226E-02     .272E-03                                     
RMM:   4     -.249763815918E+02    -.14737E-04    -.37174E-05  4605    .638E-03                                                  
   70 T=  3104. E= -.19760971E+02 F= -.24976382E+02 E0= -.24895570E+02  EK=  .52154E+01 SP=  .00E+00 SK=  .00E+00 mag=       .985
       N       E                     dE             d eps       ncg     rms          rms(c)                                      
DAV:   1     -.249714533747E+02     .49135E-02    -.30664E+00 15080    .872E+00     .981E-03                                     
RMM:   2     -.249765115370E+02    -.50582E-02    -.23834E-02 13545    .153E-01     .344E-03                                     
RMM:   3     -.249766043621E+02    -.92825E-04    -.36733E-04  9619    .148E-02     .263E-03                                     
RMM:   4     -.249766430496E+02    -.38688E-04    -.24871E-05  5281    .566E-03     .203E-03                                     
RMM:   5     -.249766652171E+02    -.22167E-04    -.86252E-06  6471    .584E-03                                                  
   71 T=  3104. E= -.19760981E+02 F= -.24976665E+02 E0= -.24895852E+02  EK=  .52157E+01 SP=  .00E+00 SK=  .00E+00 mag=       .984
       N       E                     dE             d eps       ncg     rms          rms(c)                                      
DAV:   1     -.249673491382E+02     .92939E-02    -.12799E+00 15128    .852E+00     .107E-02                                     
RMM:   2     -.249770271908E+02    -.96781E-02    -.74032E-02 13298    .194E-01     .318E-03                                     
RMM:   3     -.249769343589E+02     .92832E-04    -.83981E-04  8707    .204E-02     .221E-03                                     
RMM:   4     -.249769482161E+02    -.13857E-04    -.43312E-05  5237    .663E-03                                                  
   72 T=  3104. E= -.19760970E+02 F= -.24976948E+02 E0= -.24896133E+02  EK=  .52160E+01 SP=  .00E+00 SK=  .00E+00 mag=       .983
       N       E                     dE             d eps       ncg     rms          rms(c)                                      
DAV:   1     -.249744891895E+02     .24452E-02    -.33870E-01 14656    .541E+00     .891E-03                                     
RMM:   2     -.249771940254E+02    -.27048E-02    -.90247E-03 12662    .112E-01     .318E-03                                     
RMM:   3     -.249772414961E+02    -.47471E-04    -.77828E-05  8410    .109E-02     .193E-03                                     
RMM:   4     -.249772574522E+02    -.15956E-04    -.54053E-06  5467    .484E-03                                                  
   73 T=  3104. E= -.19760960E+02 F= -.24977257E+02 E0= -.24896439E+02  EK=  .52163E+01 SP=  .00E+00 SK=  .00E+00 mag=       .982
       N       E                     dE             d eps       ncg     rms          rms(c)                                      
DAV:   1     -.249755837280E+02     .16578E-02    -.22805E+00 14008    .704E+00     .858E-03                                     
RMM:   2     -.249775416334E+02    -.19579E-02    -.43559E-03 12477    .866E-02     .331E-03                                     
RMM:   3     -.249775761292E+02    -.34496E-04    -.77318E-05  8327    .954E-03     .222E-03                                     
RMM:   4     -.249776003502E+02    -.24221E-04    -.15252E-05  6275    .561E-03                                                  
   74 T=  3104. E= -.19760958E+02 F= -.24977600E+02 E0= -.24896780E+02  EK=  .52166E+01 SP=  .00E+00 SK=  .00E+00 mag=       .981
       N       E                     dE             d eps       ncg     rms          rms(c)                                      
DAV:   1     -.249758485753E+02     .17276E-02    -.20683E+00 14216    .827E+00     .850E-03                                     
RMM:   2     -.249779210685E+02    -.20725E-02    -.69291E-03 12847    .950E-02     .379E-03                                     
RMM:   3     -.249779579365E+02    -.36868E-04    -.11774E-04  9109    .115E-02     .211E-03                                     
RMM:   4     -.249779714273E+02    -.13491E-04    -.97045E-06  6022    .562E-03                                                  
   75 T=  3105. E= -.19760954E+02 F= -.24977971E+02 E0= -.24897149E+02  EK=  .52170E+01 SP=  .00E+00 SK=  .00E+00 mag=       .980
       N       E                     dE             d eps       ncg     rms          rms(c)                                      
DAV:   1     -.249770427730E+02     .91516E-03    -.13767E+00 13136    .757E+00     .788E-03                                     
RMM:   2     -.249783470093E+02    -.13042E-02    -.39654E-03 12745    .701E-02     .332E-03                                     
RMM:   3     -.249783725391E+02    -.25530E-04    -.35482E-05  8958    .854E-03                                                  
   76 T=  3105. E= -.19760944E+02 F= -.24978373E+02 E0= -.24897547E+02  EK=  .52174E+01 SP=  .00E+00 SK=  .00E+00 mag=       .978
       N       E                     dE             d eps       ncg     rms          rms(c)                                      
DAV:   1     -.249744690173E+02     .38780E-02    -.28404E+00 13744    .104E+01     .893E-03                                     
RMM:   2     -.249785901024E+02    -.41211E-02    -.33382E-02 13168    .140E-01     .446E-03                                     
RMM:   3     -.249787900869E+02    -.19998E-03    -.12111E-03  9965    .189E-02     .194E-03                                     
RMM:   4     -.249788059479E+02    -.15861E-04    -.50404E-05  4390    .568E-03                                                  
   77 T=  3105. E= -.19760923E+02 F= -.24978806E+02 E0= -.24897978E+02  EK=  .52179E+01 SP=  .00E+00 SK=  .00E+00 mag=       .977
       N       E                     dE             d eps       ncg     rms          rms(c)                                      
DAV:   1     -.249778602032E+02     .92988E-03    -.15476E+00 13936    .869E+00     .769E-03                                     
RMM:   2     -.249792598438E+02    -.13996E-02    -.97763E-03 12675    .105E-01     .229E-03                                     
RMM:   3     -.249793053863E+02    -.45543E-04    -.19901E-04  8779    .152E-02     .169E-03                                     
RMM:   4     -.249793130284E+02    -.76421E-05    -.11275E-05  5708    .609E-03                                                  
   78 T=  3105. E= -.19760931E+02 F= -.24979313E+02 E0= -.24898482E+02  EK=  .52184E+01 SP=  .00E+00 SK=  .00E+00 mag=       .975
       N       E                     dE             d eps       ncg     rms          rms(c)                                      
DAV:   1     -.249793217724E+02    -.16386E-04    -.14489E+00 13112    .740E+00     .798E-03                                     
RMM:   2     -.249798377237E+02    -.51595E-03    -.22598E-03 11841    .535E-02     .362E-03                                     
RMM:   3     -.249798546183E+02    -.16895E-04    -.50185E-05  9062    .898E-03                                                  
   79 T=  3106. E= -.19760928E+02 F= -.24979855E+02 E0= -.24899020E+02  EK=  .52189E+01 SP=  .00E+00 SK=  .00E+00 mag=       .973
       N       E                     dE             d eps       ncg     rms          rms(c)                                      
DAV:   1     -.249791211656E+02     .71656E-03    -.18340E+00 12760    .799E+00     .837E-03                                     
RMM:   2     -.249804076205E+02    -.12865E-02    -.10853E-02 12037    .878E-02     .478E-03                                     
RMM:   3     -.249804475981E+02    -.39978E-04    -.16988E-04  9832    .129E-02     .210E-03                                     
RMM:   4     -.249804530740E+02    -.54759E-05    -.17293E-05  4441    .489E-03                                                  
   80 T=  3106. E= -.19760922E+02 F= -.24980453E+02 E0= -.24899616E+02  EK=  .52195E+01 SP=  .00E+00 SK=  .00E+00 mag=       .972
[...]
RMM:   5     -.248076222078E+02    -.93754E-03    -.78064E-06  4386    .401E-03     .295E-03                                     
RMM:   6     -.248098117884E+02    -.21896E-02    -.37114E-06  5389    .452E-03     .591E-04                                     
RMM:   7     -.248101416172E+02    -.32983E-03    -.40398E-06  4975    .472E-03     .326E-04                                     
RMM:   8     -.248101223334E+02     .19284E-04    -.41000E-07  2794    .304E-03                                                  
  617 T=  3006. E= -.19758834E+02 F= -.24810122E+02 E0= -.24729984E+02  EK=  .50513E+01 SP=  .00E+00 SK=  .00E+00 mag=      1.000
       N       E                     dE             d eps       ncg     rms          rms(c)                                      
DAV:   1     -.247981416083E+02     .12000E-01    -.30217E+00 12216    .871E+00     .839E-03                                     
RMM:   2     -.248043080730E+02    -.61665E-02    -.43368E-02 11781    .121E-01     .562E-03                                     
RMM:   3     -.248052169721E+02    -.90890E-03    -.11135E-03  8722    .171E-02     .605E-03                                     
RMM:   4     -.248064914330E+02    -.12745E-02    -.12159E-04  4999    .686E-03     .327E-03                                     
RMM:   5     -.248086874690E+02    -.21960E-02    -.12820E-05  5947    .487E-03     .192E-03                                     
RMM:   6     -.248093685964E+02    -.68113E-03    -.13816E-06  3989    .360E-03     .624E-04                                     
RMM:   7     -.248096325264E+02    -.26393E-03    -.36456E-06  4881    .472E-03     .300E-04                                     
RMM:   8     -.248096170124E+02     .15514E-04    -.31673E-07  2718    .297E-03                                                  
  618 T=  3006. E= -.19758831E+02 F= -.24809617E+02 E0= -.24729481E+02  EK=  .50508E+01 SP=  .00E+00 SK=  .00E+00 mag=      1.000
       N       E                     dE             d eps       ncg     rms          rms(c)                                      
DAV:   1     -.248017194481E+02     .79131E-02    -.15159E+00 11552    .822E+00     .762E-03                                     
RMM:   2     -.248039345138E+02    -.22151E-02    -.38460E-03 11389    .498E-02     .524E-03                                     
RMM:   3     -.248080509296E+02    -.41164E-02    -.91197E-05  7736    .987E-03     .173E-03                                     
RMM:   4     -.248088003598E+02    -.74943E-03    -.85159E-06  5324    .507E-03     .273E-03                                     
RMM:   5     -.248090696660E+02    -.26931E-03    -.55184E-06  5121    .519E-03     .699E-04                                     
RMM:   6     -.248090513799E+02     .18286E-04    -.25102E-07  2659    .281E-03                                                  
  619 T=  3005. E= -.19758767E+02 F= -.24809051E+02 E0= -.24728916E+02  EK=  .50503E+01 SP=  .00E+00 SK=  .00E+00 mag=      1.000
       N       E                     dE             d eps       ncg     rms          rms(c)                                      
DAV:   1     -.248016990140E+02     .73707E-02    -.25243E+00 10840    .912E+00     .761E-03                                     
RMM:   2     -.248035376649E+02    -.18387E-02    -.36418E-04 11383    .312E-02     .526E-03                                     
RMM:   3     -.248078582255E+02    -.43206E-02    -.91783E-06  7972    .693E-03     .249E-03                                     
RMM:   4     -.248085009807E+02    -.64276E-03    -.23108E-06  4928    .420E-03     .188E-03                                     
RMM:   5     -.248084844532E+02     .16528E-04    -.42975E-06  5038    .496E-03                                                  
  620 T=  3005. E= -.19758701E+02 F= -.24808484E+02 E0= -.24728350E+02  EK=  .50498E+01 SP=  .00E+00 SK=  .00E+00 mag=      1.000
       N       E                     dE             d eps       ncg     rms          rms(c)                                      
DAV:   1     -.248003381281E+02     .81629E-02    -.15854E+00 11768    .863E+00     .748E-03                                     
RMM:   2     -.248031495848E+02    -.28115E-02    -.10364E-02 11110    .711E-02     .514E-03                                     
RMM:   3     -.248058697103E+02    -.27201E-02    -.25761E-04  7053    .125E-02     .247E-03                                     
RMM:   4     -.248076676468E+02    -.17979E-02    -.31613E-05  6603    .676E-03     .262E-03                                     
RMM:   5     -.248081157839E+02    -.44814E-03    -.42477E-06  4463    .417E-03     .113E-03                                     
RMM:   6     -.248081007974E+02     .14987E-04    -.19349E-06  4074    .394E-03                                                  
  621 T=  3005. E= -.19758816E+02 F= -.24808101E+02 E0= -.24727969E+02  EK=  .50493E+01 SP=  .00E+00 SK=  .00E+00 mag=      1.000
       N       E                     dE             d eps       ncg     rms          rms(c)                                      
DAV:   1     -.247989094489E+02     .92063E-02    -.12317E+00 11688    .798E+00     .787E-03                                     
RMM:   2     -.248022441930E+02    -.33347E-02    -.14548E-02 11234    .828E-02     .544E-03                                     
RMM:   3     -.248042847271E+02    -.20405E-02    -.28132E-04  7911    .122E-02     .492E-03                                     
RMM:   4     -.248055321259E+02    -.12474E-02    -.29293E-05  4826    .562E-03     .259E-03                                     
RMM:   5     -.248070651792E+02    -.15331E-02    -.49768E-06  5959    .457E-03     .192E-03                                     
RMM:   6     -.248076382519E+02    -.57307E-03    -.36452E-06  4686    .430E-03     .429E-04                                     
RMM:   7     -.248076143256E+02     .23926E-04    -.91494E-07  3425    .349E-03                                                  
  622 T=  3005. E= -.19758828E+02 F= -.24807614E+02 E0= -.24727484E+02  EK=  .50488E+01 SP=  .00E+00 SK=  .00E+00 mag=      1.000
       N       E                     dE             d eps       ncg     rms          rms(c)                                      
DAV:   1     -.247999930704E+02     .76452E-02    -.21240E+00 11208    .820E+00     .747E-03                                     
RMM:   2     -.248019647167E+02    -.19716E-02    -.15344E-03 11268    .432E-02     .525E-03                                     
RMM:   3     -.248049545634E+02    -.29898E-02    -.29325E-05  8232    .824E-03     .336E-03                                     
RMM:   4     -.248069439827E+02    -.19894E-02    -.69992E-06  6339    .549E-03     .108E-03                                     
RMM:   5     -.248070821884E+02    -.13821E-03    -.39881E-06  5106    .484E-03     .184E-03                                     
RMM:   6     -.248070403914E+02     .41797E-04    -.26839E-07  2673    .275E-03     .363E-04                                     
RMM:   7     -.248070923435E+02    -.51952E-04    -.60882E-08  2353    .243E-03     .195E-04                                     
RMM:   8     -.248071406113E+02    -.48268E-04    -.31992E-07  2696    .264E-03     .289E-05                                     
RMM:   9     -.248071409746E+02    -.36333E-06    -.46459E-08  1804    .242E-03                                                  
  623 T=  3004. E= -.19758853E+02 F= -.24807141E+02 E0= -.24727012E+02  EK=  .50483E+01 SP=  .00E+00 SK=  .00E+00 mag=      1.000
       N       E                     dE             d eps       ncg     rms          rms(c)                                      
DAV:   1     -.247993977576E+02     .77429E-02    -.10470E+00 11264    .897E+00     .752E-03                                     
RMM:   2     -.248014410409E+02    -.20433E-02    -.21803E-03 11227    .386E-02     .527E-03                                     
RMM:   3     -.248055094313E+02    -.40684E-02    -.41126E-05  7661    .743E-03     .179E-03                                     
RMM:   4     -.248065204510E+02    -.10110E-02    -.68680E-06  5777    .481E-03     .216E-03                                     
RMM:   5     -.248065564367E+02    -.35986E-04    -.35385E-06  4635    .453E-03     .116E-03                                     
RMM:   6     -.248065505068E+02     .59299E-05    -.15973E-07  2440    .263E-03                                                  
  624 T=  3004. E= -.19758758E+02 F= -.24806551E+02 E0= -.24726423E+02  EK=  .50478E+01 SP=  .00E+00 SK=  .00E+00 mag=      1.000
       N       E                     dE             d eps       ncg     rms          rms(c)                                      
DAV:   1     -.247964129499E+02     .10143E-01    -.16938E+00 11736    .946E+00     .804E-03                                     
RMM:   2     -.248009256523E+02    -.45127E-02    -.27088E-02 11584    .869E-02     .538E-03                                     
RMM:   3     -.248026773975E+02    -.17517E-02    -.11082E-03  7590    .149E-02     .488E-03                                     
RMM:   4     -.248034865187E+02    -.80912E-03    -.70638E-05  4357    .613E-03     .305E-03                                     
RMM:   5     -.248055396967E+02    -.20532E-02    -.82152E-06  5506    .467E-03     .144E-03                                     
RMM:   6     -.248059914215E+02    -.45172E-03    -.12283E-06  3676    .344E-03     .572E-04                                     
RMM:   7     -.248060939524E+02    -.10253E-03    -.28625E-06  4726    .451E-03     .223E-04                                     
RMM:   8     -.248061187002E+02    -.24748E-04    -.10393E-07  2219    .254E-03                                                  
  625 T=  3004. E= -.19758821E+02 F= -.24806119E+02 E0= -.24725993E+02  EK=  .50473E+01 SP=  .00E+00 SK=  .00E+00 mag=      1.000
       N       E                     dE             d eps       ncg     rms          rms(c)                                      
DAV:   1     -.247970433114E+02     .90506E-02    -.17689E+00 11264    .953E+00     .770E-03                                     
RMM:   2     -.248002893251E+02    -.32460E-02    -.13954E-02 11379    .569E-02     .530E-03                                     
RMM:   3     -.248022041393E+02    -.19148E-02    -.75276E-04  7695    .109E-02     .486E-03                                     
RMM:   4     -.248033958599E+02    -.11917E-02    -.37035E-05  4543    .490E-03     .253E-03                                     
RMM:   5     -.248054501204E+02    -.20543E-02    -.71948E-06  5622    .472E-03     .715E-04                                     
RMM:   6     -.248056118672E+02    -.16175E-03    -.89584E-07  3370    .321E-03     .552E-04                                     
RMM:   7     -.248056499384E+02    -.38071E-04    -.10604E-06  3814    .358E-03     .295E-04                                     
RMM:   8     -.248056377493E+02     .12189E-04    -.12959E-07  2601    .275E-03                                                  
  626 T=  3003. E= -.19758834E+02 F= -.24805638E+02 E0= -.24725514E+02  EK=  .50468E+01 SP=  .00E+00 SK=  .00E+00 mag=      1.000
       N       E                     dE             d eps       ncg     rms          rms(c)                                      
DAV:   1     -.247947954880E+02     .10854E-01    -.12582E+00 12416    .834E+00     .807E-03                                     
RMM:   2     -.247999120654E+02    -.51166E-02    -.32909E-02 11652    .143E-01     .542E-03                                     
RMM:   3     -.248013178139E+02    -.14057E-02    -.58367E-04  7827    .201E-02     .501E-03                                     
RMM:   4     -.248020883196E+02    -.77051E-03    -.46644E-05  4540    .728E-03     .342E-03                                     
RMM:   5     -.248036505918E+02    -.15623E-02    -.40296E-06  5455    .440E-03     .257E-03                                     
RMM:   6     -.248050268015E+02    -.13762E-02    -.27289E-06  5155    .424E-03     .463E-04                                     
RMM:   7     -.248051293765E+02    -.10257E-03    -.23287E-06  4521    .423E-03     .284E-04                                     
RMM:   8     -.248051268904E+02     .24861E-05    -.11445E-07  2349    .261E-03                                                  
  627 T=  3003. E= -.19758816E+02 F= -.24805127E+02 E0= -.24725004E+02  EK=  .50463E+01 SP=  .00E+00 SK=  .00E+00 mag=      1.000
       N       E                     dE             d eps       ncg     rms          rms(c)                                      
DAV:   1     -.247976405263E+02     .74889E-02    -.11460E+00 11184    .830E+00     .759E-03                                     
RMM:   2     -.247994946376E+02    -.18541E-02    -.33988E-04 11196    .282E-02     .523E-03                                     
RMM:   3     -.248044124367E+02    -.49178E-02    -.12461E-05  8018    .724E-03     .107E-03                                     
RMM:   4     -.248045702371E+02    -.15780E-03    -.48417E-06  5393    .510E-03     .203E-03                                     
RMM:   5     -.248045396599E+02     .30577E-04    -.32816E-07  2828    .276E-03     .594E-04                                     
RMM:   6     -.248045517080E+02    -.12048E-04    -.58900E-08  1871    .243E-03                                                  
  628 T=  3003. E= -.19758732E+02 F= -.24804552E+02 E0= -.24724431E+02  EK=  .50458E+01 SP=  .00E+00 SK=  .00E+00 mag=      1.000
       N       E                     dE             d eps       ncg     rms          rms(c)                                      
DAV:   1     -.247948993034E+02     .96404E-02    -.14077E+00 11728    .819E+00     .795E-03                                     
RMM:   2     -.247990276296E+02    -.41283E-02    -.23174E-02 11456    .124E-01     .532E-03                                     
RMM:   3     -.248009437774E+02    -.19161E-02    -.29396E-04  6733    .142E-02     .353E-03                                     
RMM:   4     -.248018842101E+02    -.94043E-03    -.23616E-05  4934    .609E-03     .392E-03                                     
RMM:   5     -.248038998443E+02    -.20156E-02    -.51661E-06  5606    .463E-03     .111E-03                                     
RMM:   6     -.248041401870E+02    -.24034E-03    -.94434E-07  3587    .333E-03     .465E-04                                     
RMM:   7     -.248041382867E+02     .19003E-05    -.13469E-06  4006    .377E-03                                                  
  629 T=  3002. E= -.19758808E+02 F= -.24804138E+02 E0= -.24724019E+02  EK=  .50453E+01 SP=  .00E+00 SK=  .00E+00 mag=      1.000
       N       E                     dE             d eps       ncg     rms          rms(c)                                      
DAV:   1     -.247966557559E+02     .74844E-02    -.25820E+00 10928    .769E+00     .748E-03                                     
RMM:   2     -.247985004375E+02    -.18447E-02    -.23797E-04 10734    .222E-02     .521E-03                                     
RMM:   3     -.248032959220E+02    -.47955E-02    -.86121E-06  8255    .672E-03     .142E-03                                     
RMM:   4     -.248035313569E+02    -.23543E-03    -.56152E-06  5916    .537E-03     .194E-03                                     
RMM:   5     -.248034997931E+02     .31564E-04    -.25048E-07  2839    .276E-03     .864E-04                                     
RMM:   6     -.248035549897E+02    -.55197E-04    -.56940E-08  2350    .240E-03     .365E-04                                     
RMM:   7     -.248036164027E+02    -.61413E-04    -.66021E-08  2419    .242E-03     .242E-04                                     
RMM:   8     -.248036747682E+02    -.58365E-04    -.17936E-07  2665    .255E-03     .598E-05                                     
RMM:   9     -.248036885808E+02    -.13813E-04    -.12516E-07  2182    .257E-03                                                  
  630 T=  3002. E= -.19758848E+02 F= -.24803689E+02 E0= -.24723571E+02  EK=  .50448E+01 SP=  .00E+00 SK=  .00E+00 mag=      1.000
       N       E                     dE             d eps       ncg     rms          rms(c)                                      
DAV:   1     -.247938769358E+02     .97978E-02    -.16703E+00 11216    .785E+00     .782E-03                                     
RMM:   2     -.247979047718E+02    -.40278E-02    -.21866E-02 11384    .951E-02     .538E-03                                     
RMM:   3     -.247993215404E+02    -.14168E-02    -.23502E-04  7701    .120E-02     .545E-03                                     
RMM:   4     -.248008159483E+02    -.14944E-02    -.14747E-05  4748    .514E-03     .253E-03                                     
RMM:   5     -.248029063562E+02    -.20904E-02    -.35032E-06  5468    .444E-03     .108E-03                                     
RMM:   6     -.248031407256E+02    -.23437E-03    -.65968E-07  3391    .320E-03     .482E-04                                     
RMM:   7     -.248031680957E+02    -.27370E-04    -.14474E-06  4112    .382E-03                                                  
  631 T=  3002. E= -.19758815E+02 F= -.24803168E+02 E0= -.24723052E+02  EK=  .50444E+01 SP=  .00E+00 SK=  .00E+00 mag=      1.000
       N       E                     dE             d eps       ncg     rms          rms(c)                                      
DAV:   1     -.247931075971E+02     .10033E-01    -.12782E+00 11696    .692E+00     .789E-03                                     
RMM:   2     -.247975115409E+02    -.44039E-02    -.25892E-02 11089    .976E-02     .535E-03                                     
RMM:   3     -.247994714493E+02    -.19599E-02    -.66443E-04  6663    .147E-02     .408E-03                                     
RMM:   4     -.248002660730E+02    -.79462E-03    -.38637E-05  4229    .605E-03     .318E-03                                     
RMM:   5     -.248024173101E+02    -.21512E-02    -.60893E-06  5908    .489E-03     .104E-03                                     
RMM:   6     -.248026737655E+02    -.25646E-03    -.93016E-07  3686    .335E-03     .547E-04                                     
RMM:   7     -.248026744724E+02    -.70692E-06    -.12877E-06  4034    .374E-03                                                  
  632 T=  3002. E= -.19758808E+02 F= -.24802674E+02 E0= -.24722559E+02  EK=  .50439E+01 SP=  .00E+00 SK=  .00E+00 mag=      1.000
       N       E                     dE             d eps       ncg     rms          rms(c)                                      
DAV:   1     -.247952303294E+02     .74434E-02    -.14576E+00 11128    .720E+00     .749E-03                                     
RMM:   2     -.247970786681E+02    -.18483E-02    -.37381E-04 11138    .282E-02     .522E-03                                     
RMM:   3     -.248017752667E+02    -.46966E-02    -.11671E-05  7778    .700E-03     .151E-03                                     
RMM:   4     -.248021904173E+02    -.41515E-03    -.45908E-06  5693    .514E-03     .241E-03                                     
RMM:   5     -.248020607268E+02     .12969E-03    -.78317E-07  3316    .319E-03     .478E-04                                     
RMM:   6     -.248021040493E+02    -.43323E-04    -.10970E-07  2348    .255E-03     .347E-04                                     
RMM:   7     -.248021552933E+02    -.51244E-04    -.48532E-08  2288    .246E-03     .228E-04                                     
RMM:   8     -.248022231339E+02    -.67841E-04    -.33595E-07  2819    .267E-03     .339E-05                                     
RMM:   9     -.248022271595E+02    -.40256E-05    -.74941E-08  1974    .246E-03                                                  
  633 T=  3001. E= -.19758846E+02 F= -.24802227E+02 E0= -.24722114E+02  EK=  .50434E+01 SP=  .00E+00 SK=  .00E+00 mag=      1.000
