       N       E                     dE             d eps       ncg     rms          rms(c)                                      
DAV:   1      .111881171086E+04     .11188E+04    -.62983E+04 16320    .996E+02                                                  
DAV:   2      .174418651754E+02    -.11014E+04    -.10446E+04 16864    .280E+02                                                  
DAV:   3     -.254967417704E+02    -.42939E+02    -.42388E+02 18104    .675E+01                                                  
DAV:   4     -.258813291247E+02    -.38459E+00    -.38406E+00 18080    .613E+00                                                  
DAV:   5     -.258858321511E+02    -.45030E-02    -.45029E-02 18208    .572E-01     .168E+01                                     
RMM:   6     -.243524431635E+02     .15334E+01    -.57622E+00 16320    .813E+00     .107E+01                                     
RMM:   7     -.299747967759E+02    -.56224E+01    -.12127E+01 16368    .711E+00     .864E+00                                     
RMM:   8     -.251252101825E+02     .48496E+01    -.93265E+00 16423    .576E+00     .425E+00                                     
RMM:   9     -.291721546031E+02    -.40469E+01    -.24165E+00 16389    .285E+00     .567E+00                                     
RMM:  10     -.249315592611E+02     .42406E+01    -.16844E+00 16416    .232E+00     .676E-01                                     
RMM:  11     -.249232383190E+02     .83209E-02    -.48481E-02 16411    .555E-01     .161E-01                                     
RMM:  12     -.249225453238E+02     .69300E-03    -.19749E-03 16429    .109E-01     .931E-02                                     
RMM:  13     -.249233094388E+02    -.76411E-03    -.39986E-04 16318    .557E-02     .446E-02                                     
RMM:  14     -.249239409902E+02    -.63155E-03    -.71136E-05 10490    .244E-02     .139E-02                                     
RMM:  15     -.249240454102E+02    -.10442E-03    -.10364E-05  9686    .103E-02     .718E-03                                     
RMM:  16     -.249240488822E+02    -.34720E-05    -.57655E-06  9449    .681E-03                                                  
    1 T=  3055. E= -.19790837E+02 F= -.24924049E+02 E0= -.24845245E+02  EK=  .51332E+01 SP=  .00E+00 SK=  .00E+00 mag=      1.000
       N       E                     dE             d eps       ncg     rms          rms(c)                                      
DAV:   1     -.244690013304E+02     .45504E+00    -.15441E-01 17224    .147E-01     .301E-01                                     
RMM:   2     -.246085369346E+02    -.13954E+00    -.90120E-04 10857    .354E-02     .216E-01                                     
RMM:   3     -.249028367011E+02    -.29430E+00    -.12762E-03 11402    .397E-02     .225E-02                                     
RMM:   4     -.249191004241E+02    -.16264E-01    -.21171E-05  9964    .985E-03     .123E-02                                     
RMM:   5     -.249235937267E+02    -.44933E-02    -.65495E-06  8501    .554E-03     .254E-03                                     
RMM:   6     -.249237489784E+02    -.15525E-03    -.29133E-07  3397    .282E-03     .120E-03                                     
RMM:   7     -.249244106709E+02    -.66169E-03    -.12264E-05  5885    .507E-03     .688E-04                                     
RMM:   8     -.249244007012E+02     .99697E-05    -.61901E-07  2632    .241E-03                                                  
    2 T=  3055. E= -.19790827E+02 F= -.24924401E+02 E0= -.24845595E+02  EK=  .51336E+01 SP=  .00E+00 SK=  .00E+00 mag=      1.000
       N       E                     dE             d eps       ncg     rms          rms(c)                                      
DAV:   1     -.248707800580E+02     .53631E-01    -.74283E-02 11912    .293E+00     .414E-02                                     
RMM:   2     -.248871346042E+02    -.16355E-01    -.12892E-02 10971    .524E-02     .273E-02                                     
RMM:   3     -.249189908451E+02    -.31856E-01    -.34974E-04 10776    .207E-02     .105E-02                                     
RMM:   4     -.249238976216E+02    -.49068E-02    -.33897E-05  8525    .719E-03     .219E-03                                     
RMM:   5     -.249243874861E+02    -.48986E-03    -.73667E-06  7041    .494E-03     .804E-04                                     
RMM:   6     -.249245872290E+02    -.19974E-03    -.59149E-06  4104    .349E-03     .413E-04                                     
RMM:   7     -.249247466332E+02    -.15940E-03    -.15189E-06  3444    .300E-03     .123E-04                                     
RMM:   8     -.249247680534E+02    -.21420E-04    -.48986E-07  2590    .266E-03                                                  
    3 T=  3055. E= -.19790832E+02 F= -.24924768E+02 E0= -.24845962E+02  EK=  .51339E+01 SP=  .00E+00 SK=  .00E+00 mag=      1.000
       N       E                     dE             d eps       ncg     rms          rms(c)                                      
DAV:   1     -.249173936196E+02     .73530E-02    -.31936E+00 14064    .954E+00     .945E-03                                     
RMM:   2     -.249209462212E+02    -.35526E-02    -.21837E-03 12477    .498E-02     .467E-03                                     
RMM:   3     -.249228344830E+02    -.18883E-02    -.55593E-05  8417    .985E-03     .243E-03                                     
RMM:   4     -.249247171032E+02    -.18826E-02    -.22738E-05  7363    .710E-03     .178E-03                                     
RMM:   5     -.249250464035E+02    -.32930E-03    -.57243E-06  5464    .462E-03     .449E-04                                     
RMM:   6     -.249251314169E+02    -.85013E-04    -.13899E-06  3485    .330E-03     .214E-04                                     
RMM:   7     -.249251173062E+02     .14111E-04    -.69312E-07  2940    .291E-03                                                  
    4 T=  3055. E= -.19790816E+02 F= -.24925117E+02 E0= -.24846309E+02  EK=  .51343E+01 SP=  .00E+00 SK=  .00E+00 mag=      1.000
       N       E                     dE             d eps       ncg     rms          rms(c)                                      
DAV:   1     -.249150128456E+02     .10119E-01    -.14049E+00 13336    .933E+00     .842E-03                                     
RMM:   2     -.249242480643E+02    -.92352E-02    -.29698E-02 11511    .140E-01     .273E-03                                     
RMM:   3     -.249246992504E+02    -.45119E-03    -.42153E-04  8482    .179E-02     .162E-03                                     
RMM:   4     -.249249272245E+02    -.22797E-03    -.32727E-05  4681    .628E-03     .103E-03                                     
RMM:   5     -.249254014987E+02    -.47427E-03    -.28935E-06  4628    .387E-03     .249E-04                                     
RMM:   6     -.249254875501E+02    -.86051E-04    -.22417E-06  4094    .367E-03     .148E-04                                     
RMM:   7     -.249254858351E+02     .17150E-05    -.16088E-06  3670    .350E-03                                                  
    5 T=  3056. E= -.19790817E+02 F= -.24925486E+02 E0= -.24846676E+02  EK=  .51347E+01 SP=  .00E+00 SK=  .00E+00 mag=      1.000
       N       E                     dE             d eps       ncg     rms          rms(c)                                      
DAV:   1     -.249180299985E+02     .74576E-02    -.27842E+00 12216    .941E+00     .786E-03                                     
RMM:   2     -.249244493638E+02    -.64194E-02    -.34776E-03 11334    .561E-02     .236E-03                                     
RMM:   3     -.249251623660E+02    -.71300E-03    -.82823E-05  8487    .109E-02     .120E-03                                     
RMM:   4     -.249255864752E+02    -.42411E-03    -.10237E-05  5541    .519E-03     .640E-04                                     
RMM:   5     -.249257186313E+02    -.13216E-03    -.48021E-06  4915    .415E-03     .230E-04                                     
RMM:   6     -.249257872317E+02    -.68600E-04    -.80797E-07  3184    .300E-03     .121E-04                                     
RMM:   7     -.249258684013E+02    -.81170E-04    -.11577E-06  3703    .337E-03     .725E-05                                     
RMM:   8     -.249258760394E+02    -.76380E-05    -.15520E-07  2170    .264E-03                                                  
    6 T=  3056. E= -.19790838E+02 F= -.24925876E+02 E0= -.24847065E+02  EK=  .51350E+01 SP=  .00E+00 SK=  .00E+00 mag=      1.000
       N       E                     dE             d eps       ncg     rms          rms(c)                                      
DAV:   1     -.249125249504E+02     .13343E-01    -.12707E+00 11792    .825E+00     .866E-03                                     
RMM:   2     -.249252075989E+02    -.12683E-01    -.59307E-02 11625    .107E-01     .257E-03                                     
RMM:   3     -.249258402643E+02    -.63267E-03    -.21318E-03  8889    .194E-02     .173E-03                                     
RMM:   4     -.249259091568E+02    -.68892E-04    -.16031E-04  5041    .733E-03     .139E-03                                     
RMM:   5     -.249259713982E+02    -.62241E-04    -.32853E-05  3727    .398E-03     .112E-03                                     
RMM:   6     -.249261167765E+02    -.14538E-03    -.23843E-06  3998    .343E-03     .480E-04                                     
RMM:   7     -.249261568258E+02    -.40049E-04    -.18191E-06  4178    .354E-03     .208E-04                                     
RMM:   8     -.249262146377E+02    -.57812E-04    -.73066E-07  2577    .275E-03     .719E-05                                     
RMM:   9     -.249262374292E+02    -.22792E-04    -.27782E-07  2444    .278E-03                                                  
    7 T=  3056. E= -.19790830E+02 F= -.24926237E+02 E0= -.24847425E+02  EK=  .51354E+01 SP=  .00E+00 SK=  .00E+00 mag=      1.000
       N       E                     dE             d eps       ncg     rms          rms(c)                                      
DAV:   1     -.249189472978E+02     .72673E-02    -.89832E-01 11624    .654E+00     .788E-03                                     
RMM:   2     -.249256769120E+02    -.67296E-02    -.20548E-03 10712    .388E-02     .259E-03                                     
RMM:   3     -.249260316497E+02    -.35474E-03    -.48384E-05  7993    .815E-03     .139E-03                                     
RMM:   4     -.249263299001E+02    -.29825E-03    -.33385E-06  4181    .394E-03     .757E-04                                     
RMM:   5     -.249264835108E+02    -.15361E-03    -.29959E-06  4968    .404E-03     .366E-04                                     
RMM:   6     -.249265253142E+02    -.41803E-04    -.39664E-06  3598    .384E-03     .163E-04                                     
RMM:   7     -.249265978535E+02    -.72539E-04    -.35580E-07  2715    .289E-03     .108E-04                                     
RMM:   8     -.249266191674E+02    -.21314E-04    -.38783E-07  2495    .279E-03                                                  
    8 T=  3056. E= -.19790839E+02 F= -.24926619E+02 E0= -.24847805E+02  EK=  .51358E+01 SP=  .00E+00 SK=  .00E+00 mag=      1.000
       N       E                     dE             d eps       ncg     rms          rms(c)                                      
DAV:   1     -.249191968077E+02     .74010E-02    -.17718E+00 11792    .783E+00     .788E-03                                     
RMM:   2     -.249262171082E+02    -.70203E-02    -.28309E-03 10901    .427E-02     .341E-03                                     
RMM:   3     -.249263326869E+02    -.11558E-03    -.66244E-05  8101    .935E-03     .318E-03                                     
RMM:   4     -.249264943344E+02    -.16165E-03    -.73844E-06  4723    .449E-03     .335E-03                                     
RMM:   5     -.249265298894E+02    -.35555E-04    -.10366E-06  3391    .315E-03     .364E-03                                     
RMM:   6     -.249266625945E+02    -.13271E-03    -.99286E-06  4614    .424E-03     .218E-03                                     
RMM:   7     -.249268909547E+02    -.22836E-03    -.40193E-06  8482    .510E-03     .766E-04                                     
RMM:   8     -.249268989548E+02    -.80001E-05    -.69273E-07  2623    .223E-03                                                  
    9 T=  3057. E= -.19790742E+02 F= -.24926899E+02 E0= -.24848083E+02  EK=  .51362E+01 SP=  .00E+00 SK=  .00E+00 mag=      1.000
       N       E                     dE             d eps       ncg     rms          rms(c)                                      
DAV:   1     -.249193658962E+02     .75251E-02    -.25739E+00 11696    .941E+00     .793E-03                                     
RMM:   2     -.249265185967E+02    -.71527E-02    -.41758E-03 11054    .544E-02     .190E-03                                     
RMM:   3     -.249270695317E+02    -.55093E-03    -.11815E-04  7778    .103E-02     .106E-03                                     
RMM:   4     -.249272536937E+02    -.18416E-03    -.11139E-05  4963    .501E-03     .703E-04                                     
RMM:   5     -.249273217467E+02    -.68053E-04    -.13116E-06  3811    .346E-03     .187E-04                                     
RMM:   6     -.249273575794E+02    -.35833E-04    -.39548E-07  3087    .297E-03     .142E-04                                     
RMM:   7     -.249273678044E+02    -.10225E-04    -.14770E-07  2552    .280E-03                                                  
   10 T=  3057. E= -.19790832E+02 F= -.24927368E+02 E0= -.24848550E+02  EK=  .51365E+01 SP=  .00E+00 SK=  .00E+00 mag=      1.000
       N       E                     dE             d eps       ncg     rms          rms(c)                                      
DAV:   1     -.249152017667E+02     .12156E-01    -.22808E+00 12152    .103E+01     .859E-03                                     
RMM:   2     -.249268081552E+02    -.11606E-01    -.49890E-02 11920    .153E-01     .207E-03                                     
RMM:   3     -.249274043986E+02    -.59624E-03    -.14657E-03  8527    .222E-02     .142E-03                                     
RMM:   4     -.249275272122E+02    -.12281E-03    -.80979E-05  4991    .750E-03     .915E-04                                     
RMM:   5     -.249276859059E+02    -.15869E-03    -.11176E-05  4814    .441E-03     .499E-04                                     
RMM:   6     -.249277140839E+02    -.28178E-04    -.28741E-06  4401    .383E-03                                                  
   11 T=  3057. E= -.19790799E+02 F= -.24927714E+02 E0= -.24848895E+02  EK=  .51369E+01 SP=  .00E+00 SK=  .00E+00 mag=      1.000
       N       E                     dE             d eps       ncg     rms          rms(c)                                      
DAV:   1     -.249200887538E+02     .75972E-02    -.18617E+00 11592    .844E+00     .798E-03                                     
RMM:   2     -.249272423763E+02    -.71536E-02    -.51218E-03 11308    .599E-02     .279E-03                                     
RMM:   3     -.249276262633E+02    -.38389E-03    -.99648E-05  8320    .105E-02     .138E-03                                     
RMM:   4     -.249279661236E+02    -.33986E-03    -.99235E-06  6724    .567E-03     .597E-04                                     
RMM:   5     -.249280290917E+02    -.62968E-04    -.10983E-06  3399    .293E-03     .325E-04                                     
RMM:   6     -.249280968501E+02    -.67758E-04    -.89783E-07  3603    .297E-03     .139E-04                                     
RMM:   7     -.249281223438E+02    -.25494E-04    -.34912E-07  2810    .278E-03                                                  
   12 T=  3057. E= -.19790826E+02 F= -.24928122E+02 E0= -.24849302E+02  EK=  .51373E+01 SP=  .00E+00 SK=  .00E+00 mag=      1.000
       N       E                     dE             d eps       ncg     rms          rms(c)                                      
DAV:   1     -.249115878947E+02     .16509E-01    -.28564E+00 11832    .906E+00     .886E-03                                     
RMM:   2     -.249280724012E+02    -.16485E-01    -.97877E-02 10774    .106E-01     .295E-03                                     
RMM:   3     -.249283157416E+02    -.24334E-03    -.20321E-03  8220    .207E-02     .193E-03                                     
RMM:   4     -.249281538743E+02     .16187E-03    -.97348E-05  5444    .752E-03     .129E-03                                     
RMM:   5     -.249281787467E+02    -.24872E-04    -.66436E-06  3759    .364E-03                                                  
   13 T=  3057. E= -.19790499E+02 F= -.24928179E+02 E0= -.24849357E+02  EK=  .51377E+01 SP=  .00E+00 SK=  .00E+00 mag=      1.000
       N       E                     dE             d eps       ncg     rms          rms(c)                                      
DAV:   1     -.249210885473E+02     .70653E-02    -.37095E+00 11960    .112E+01     .798E-03                                     
RMM:   2     -.249275240300E+02    -.64355E-02    -.19208E-03 11486    .503E-02     .308E-03                                     
RMM:   3     -.249281218189E+02    -.59779E-03    -.56102E-05  8437    .104E-02     .174E-03                                     
RMM:   4     -.249286363577E+02    -.51454E-03    -.66760E-06  5707    .529E-03     .639E-04                                     
RMM:   5     -.249287822326E+02    -.14587E-03    -.22623E-06  4701    .388E-03     .289E-04                                     
RMM:   6     -.249288638581E+02    -.81625E-04    -.81918E-07  3732    .309E-03     .997E-05                                     
RMM:   7     -.249288904989E+02    -.26641E-04    -.29710E-07  2893    .276E-03                                                  
   14 T=  3058. E= -.19790824E+02 F= -.24928890E+02 E0= -.24850067E+02  EK=  .51381E+01 SP=  .00E+00 SK=  .00E+00 mag=      1.000
       N       E                     dE             d eps       ncg     rms          rms(c)                                      
DAV:   1     -.249208883866E+02     .79755E-02    -.17385E+00 12256    .994E+00     .774E-03                                     
RMM:   2     -.249285282907E+02    -.76399E-02    -.10729E-02 11991    .933E-02     .389E-03                                     
RMM:   3     -.249288945312E+02    -.36624E-03    -.15792E-04  9707    .140E-02     .213E-03                                     
RMM:   4     -.249287495106E+02     .14502E-03    -.18532E-05  5927    .604E-03     .137E-03                                     
RMM:   5     -.249291177541E+02    -.36824E-03    -.21764E-06  4651    .386E-03     .612E-04                                     
RMM:   6     -.249291803356E+02    -.62581E-04    -.37986E-07  3225    .301E-03     .398E-04                                     
RMM:   7     -.249292439682E+02    -.63633E-04    -.91327E-07  3655    .327E-03     .258E-04                                     
RMM:   8     -.249292772928E+02    -.33325E-04    -.73959E-07  3320    .315E-03     .101E-04                                     
RMM:   9     -.249292804307E+02    -.31379E-05    -.18057E-07  2409    .278E-03                                                  
   15 T=  3058. E= -.19790827E+02 F= -.24929280E+02 E0= -.24850455E+02  EK=  .51385E+01 SP=  .00E+00 SK=  .00E+00 mag=      1.000
       N       E                     dE             d eps       ncg     rms          rms(c)                                      
DAV:   1     -.249166445427E+02     .12633E-01    -.25214E+00 11928    .873E+00     .852E-03                                     
RMM:   2     -.249284056633E+02    -.11761E-01    -.52429E-02 11305    .132E-01     .274E-03                                     
RMM:   3     -.249291146088E+02    -.70895E-03    -.15468E-03  8663    .216E-02     .223E-03                                     
RMM:   4     -.249293980265E+02    -.28342E-03    -.22640E-04  4541    .840E-03     .142E-03                                     
RMM:   5     -.249295775420E+02    -.17952E-03    -.11166E-05  5155    .469E-03     .632E-04                                     
RMM:   6     -.249296478720E+02    -.70330E-04    -.21153E-06  4534    .391E-03     .262E-04                                     
RMM:   7     -.249296631005E+02    -.15228E-04    -.11208E-06  3185    .307E-03                                                  
   16 T=  3058. E= -.19790821E+02 F= -.24929663E+02 E0= -.24850836E+02  EK=  .51388E+01 SP=  .00E+00 SK=  .00E+00 mag=      1.000
       N       E                     dE             d eps       ncg     rms          rms(c)                                      
DAV:   1     -.249194618132E+02     .10186E-01    -.33550E+00 12736    .968E+00     .815E-03                                     
RMM:   2     -.249290645182E+02    -.96027E-02    -.30529E-02 11646    .118E-01     .415E-03                                     
RMM:   3     -.249296081306E+02    -.54361E-03    -.79246E-04  9416    .187E-02     .199E-03                                     
RMM:   4     -.249296761002E+02    -.67970E-04    -.10536E-04  5361    .745E-03     .134E-03                                     
RMM:   5     -.249299057999E+02    -.22970E-03    -.74146E-06  3950    .369E-03     .852E-04                                     
RMM:   6     -.249299935955E+02    -.87796E-04    -.20140E-06  4096    .347E-03     .269E-04                                     
RMM:   7     -.249300423010E+02    -.48705E-04    -.17139E-06  4153    .375E-03     .211E-04                                     
RMM:   8     -.249300533307E+02    -.11030E-04    -.11464E-06  3133    .301E-03                                                  
   17 T=  3058. E= -.19790821E+02 F= -.24930053E+02 E0= -.24851225E+02  EK=  .51392E+01 SP=  .00E+00 SK=  .00E+00 mag=      1.000
       N       E                     dE             d eps       ncg     rms          rms(c)                                      
DAV:   1     -.249173122453E+02     .12730E-01    -.45792E+00 11760    .100E+01     .956E-03                                     
RMM:   2     -.249294458300E+02    -.12134E-01    -.54944E-02 11255    .140E-01     .480E-03                                     
RMM:   3     -.249297951891E+02    -.34936E-03    -.10156E-03  9750    .192E-02     .192E-03                                     
RMM:   4     -.249299849899E+02    -.18980E-03    -.12684E-04  4232    .671E-03     .144E-03                                     
RMM:   5     -.249301681874E+02    -.18320E-03    -.79322E-06  3960    .372E-03     .985E-04                                     
RMM:   6     -.249303711088E+02    -.20292E-03    -.16626E-06  4467    .367E-03     .535E-04                                     
RMM:   7     -.249304209988E+02    -.49890E-04    -.54707E-07  3490    .319E-03     .164E-04                                     
RMM:   8     -.249304404710E+02    -.19472E-04    -.80168E-07  3066    .306E-03                                                  
   18 T=  3059. E= -.19790816E+02 F= -.24930440E+02 E0= -.24851610E+02  EK=  .51396E+01 SP=  .00E+00 SK=  .00E+00 mag=      1.000
       N       E                     dE             d eps       ncg     rms          rms(c)                                      
DAV:   1     -.249209766460E+02     .94444E-02    -.34617E+00 11952    .115E+01     .826E-03                                     
RMM:   2     -.249298448588E+02    -.88682E-02    -.22957E-02 11634    .100E-01     .294E-03                                     
RMM:   3     -.249302606076E+02    -.41575E-03    -.90537E-04  8531    .144E-02     .176E-03                                     
RMM:   4     -.249304711040E+02    -.21050E-03    -.24563E-05  4421    .502E-03     .135E-03                                     
RMM:   5     -.249307733520E+02    -.30225E-03    -.61346E-06  5461    .476E-03     .345E-04                                     
RMM:   6     -.249307976362E+02    -.24284E-04    -.80861E-07  3713    .322E-03                                                  
   19 T=  3059. E= -.19790779E+02 F= -.24930798E+02 E0= -.24851966E+02  EK=  .51400E+01 SP=  .00E+00 SK=  .00E+00 mag=      1.000
       N       E                     dE             d eps       ncg     rms          rms(c)                                      
DAV:   1     -.249134894996E+02     .17284E-01    -.26864E+00 12664    .102E+01     .103E-02                                     
RMM:   2     -.249304348904E+02    -.16945E-01    -.10176E-01 11902    .200E-01     .588E-03                                     
RMM:   3     -.249306503793E+02    -.21549E-03    -.17385E-03 10074    .257E-02     .261E-03                                     
RMM:   4     -.249307951950E+02    -.14482E-03    -.13796E-04  5159    .751E-03     .195E-03                                     
RMM:   5     -.249310415567E+02    -.24636E-03    -.57895E-06  5008    .420E-03     .893E-04                                     
RMM:   6     -.249311718331E+02    -.13028E-03    -.15893E-06  4397    .362E-03     .362E-04                                     
RMM:   7     -.249312081027E+02    -.36270E-04    -.25431E-07  2749    .270E-03     .162E-04                                     
RMM:   8     -.249312328412E+02    -.24739E-04    -.83301E-07  3697    .336E-03                                                  
   20 T=  3059. E= -.19790819E+02 F= -.24931233E+02 E0= -.24852399E+02  EK=  .51404E+01 SP=  .00E+00 SK=  .00E+00 mag=      1.000
       N       E                     dE             d eps       ncg     rms          rms(c)                                      
DAV:   1     -.249105140836E+02     .20694E-01    -.24686E+00 12744    .920E+00     .942E-03                                     
RMM:   2     -.249308148953E+02    -.20301E-01    -.13658E-01 12061    .259E-01     .262E-03                                     
RMM:   3     -.249311059444E+02    -.29105E-03    -.26188E-03  9184    .317E-02     .179E-03                                     
RMM:   4     -.249312177133E+02    -.11177E-03    -.27918E-04  5411    .111E-02     .147E-03                                     
RMM:   5     -.249313468796E+02    -.12917E-03    -.33992E-05  3931    .448E-03     .111E-03                                     
RMM:   6     -.249314413330E+02    -.94453E-04    -.18707E-06  3622    .332E-03     .577E-04                                     
RMM:   7     -.249316055519E+02    -.16422E-03    -.29194E-06  4973    .444E-03     .222E-04                                     
RMM:   8     -.249316188041E+02    -.13252E-04    -.47202E-07  2739    .300E-03                                                  
   21 T=  3059. E= -.19790809E+02 F= -.24931619E+02 E0= -.24852784E+02  EK=  .51408E+01 SP=  .00E+00 SK=  .00E+00 mag=      1.000
       N       E                     dE             d eps       ncg     rms          rms(c)                                      
DAV:   1     -.249215201686E+02     .10085E-01    -.32722E+00 11672    .100E+01     .841E-03                                     
RMM:   2     -.249310114316E+02    -.94913E-02    -.30358E-02 11600    .903E-02     .312E-03                                     
RMM:   3     -.249314496364E+02    -.43820E-03    -.48263E-04  8539    .151E-02     .187E-03                                     
RMM:   4     -.249315547965E+02    -.10516E-03    -.30933E-05  4578    .552E-03     .130E-03                                     
RMM:   5     -.249319376844E+02    -.38289E-03    -.36805E-06  4997    .431E-03     .510E-04                                     
RMM:   6     -.249320057976E+02    -.68113E-04    -.12993E-06  4231    .360E-03     .195E-04                                     
RMM:   7     -.249320194592E+02    -.13662E-04    -.54448E-07  3207    .302E-03                                                  
   22 T=  3060. E= -.19790812E+02 F= -.24932019E+02 E0= -.24853183E+02  EK=  .51412E+01 SP=  .00E+00 SK=  .00E+00 mag=      1.000
       N       E                     dE             d eps       ncg     rms          rms(c)                                      
DAV:   1     -.249245621677E+02     .74436E-02    -.31425E+00 12032    .104E+01     .810E-03                                     
RMM:   2     -.249315341920E+02    -.69720E-02    -.39850E-03 11798    .648E-02     .253E-03                                     
RMM:   3     -.249319279333E+02    -.39374E-03    -.51813E-05  8111    .105E-02     .144E-03                                     
RMM:   4     -.249321507685E+02    -.22284E-03    -.41607E-06  5003    .473E-03     .813E-04                                     
RMM:   5     -.249323683779E+02    -.21761E-03    -.32516E-06  5191    .446E-03     .263E-04                                     
RMM:   6     -.249324118554E+02    -.43478E-04    -.69210E-07  3193    .327E-03     .121E-04                                     
RMM:   7     -.249324255544E+02    -.13699E-04    -.14309E-06  3673    .370E-03                                                  
   23 T=  3060. E= -.19790818E+02 F= -.24932426E+02 E0= -.24853588E+02  EK=  .51416E+01 SP=  .00E+00 SK=  .00E+00 mag=      1.000
       N       E                     dE             d eps       ncg     rms          rms(c)                                      
DAV:   1     -.249223680559E+02     .10044E-01    -.33342E+00 12544    .113E+01     .924E-03                                     
RMM:   2     -.249319443699E+02    -.95763E-02    -.29624E-02 12148    .139E-01     .256E-03                                     
RMM:   3     -.249324534244E+02    -.50905E-03    -.34175E-04  8399    .165E-02     .150E-03                                     
RMM:   4     -.249325482562E+02    -.94832E-04    -.25672E-05  4947    .597E-03     .108E-03                                     
RMM:   5     -.249327117478E+02    -.16349E-03    -.20112E-06  4034    .360E-03     .456E-04                                     
RMM:   6     -.249327858844E+02    -.74137E-04    -.11021E-06  4198    .367E-03     .229E-04                                     
RMM:   7     -.249328061885E+02    -.20304E-04    -.37981E-07  2809    .289E-03                                                  
   24 T=  3060. E= -.19790797E+02 F= -.24932806E+02 E0= -.24853967E+02  EK=  .51420E+01 SP=  .00E+00 SK=  .00E+00 mag=      1.000
       N       E                     dE             d eps       ncg     rms          rms(c)                                      
DAV:   1     -.249253427424E+02     .74431E-02    -.14069E+00 11888    .835E+00     .793E-03                                     
RMM:   2     -.249324396871E+02    -.70969E-02    -.40278E-03 11340    .578E-02     .236E-03                                     
RMM:   3     -.249329809773E+02    -.54129E-03    -.15003E-04  7666    .109E-02     .169E-03                                     
RMM:   4     -.249330348986E+02    -.53921E-04    -.92559E-06  5217    .526E-03     .923E-04                                     
RMM:   5     -.249331868848E+02    -.15199E-03    -.25848E-06  4840    .417E-03     .333E-04                                     
RMM:   6     -.249332157020E+02    -.28817E-04    -.77488E-07  3387    .329E-03                                                  
   25 T=  3060. E= -.19790804E+02 F= -.24933216E+02 E0= -.24854375E+02  EK=  .51424E+01 SP=  .00E+00 SK=  .00E+00 mag=      1.000
       N       E                     dE             d eps       ncg     rms          rms(c)                                      
DAV:   1     -.249256938902E+02     .74930E-02    -.19652E+00 12048    .825E+00     .792E-03                                     
RMM:   2     -.249329185940E+02    -.72247E-02    -.49404E-03 11274    .738E-02     .265E-03                                     
RMM:   3     -.249334169479E+02    -.49835E-03    -.73797E-05  7897    .116E-02     .146E-03                                     
RMM:   4     -.249334711057E+02    -.54158E-04    -.78137E-06  5518    .552E-03     .842E-04                                     
RMM:   5     -.249335749185E+02    -.10381E-03    -.15408E-06  4664    .365E-03     .288E-04                                     
RMM:   6     -.249336256822E+02    -.50764E-04    -.24286E-06  4427    .398E-03     .124E-04                                     
RMM:   7     -.249336289897E+02    -.33075E-05    -.40801E-07  2621    .279E-03                                                  
   26 T=  3060. E= -.19790812E+02 F= -.24933629E+02 E0= -.24854787E+02  EK=  .51428E+01 SP=  .00E+00 SK=  .00E+00 mag=      1.000
       N       E                     dE             d eps       ncg     rms          rms(c)                                      
DAV:   1     -.249265029614E+02     .71227E-02    -.17507E+00 11952    .926E+00     .784E-03                                     
RMM:   2     -.249333043653E+02    -.68014E-02    -.10321E-03 11463    .415E-02     .219E-03                                     
RMM:   3     -.249336650206E+02    -.36066E-03    -.28341E-05  7798    .905E-03     .154E-03                                     
RMM:   4     -.249338780923E+02    -.21307E-03    -.24378E-06  4380    .408E-03     .947E-04                                     
RMM:   5     -.249340264514E+02    -.14836E-03    -.47188E-06  6148    .534E-03     .327E-04                                     
RMM:   6     -.249340340840E+02    -.76326E-05    -.19639E-06  3365    .349E-03                                                  
   27 T=  3061. E= -.19790812E+02 F= -.24934034E+02 E0= -.24855190E+02  EK=  .51432E+01 SP=  .00E+00 SK=  .00E+00 mag=      1.000
       N       E                     dE             d eps       ncg     rms          rms(c)                                      
DAV:   1     -.249262036137E+02     .78228E-02    -.93131E-01 12912    .979E+00     .790E-03                                     
RMM:   2     -.249337095662E+02    -.75060E-02    -.77675E-03 11667    .869E-02     .281E-03                                     
RMM:   3     -.249341705816E+02    -.46102E-03    -.18556E-04  8402    .147E-02     .145E-03                                     
RMM:   4     -.249342906666E+02    -.12009E-03    -.18145E-05  5287    .592E-03     .824E-04                                     
RMM:   5     -.249343906499E+02    -.99983E-04    -.41353E-06  5094    .446E-03     .380E-04                                     
RMM:   6     -.249344176538E+02    -.27004E-04    -.15187E-06  3832    .339E-03                                                  
   28 T=  3061. E= -.19790788E+02 F= -.24934418E+02 E0= -.24855572E+02  EK=  .51436E+01 SP=  .00E+00 SK=  .00E+00 mag=      1.000
       N       E                     dE             d eps       ncg     rms          rms(c)                                      
DAV:   1     -.249257587886E+02     .86319E-02    -.31083E+00 12080    .964E+00     .803E-03                                     
RMM:   2     -.249340860587E+02    -.83273E-02    -.15799E-02 11571    .880E-02     .197E-03                                     
RMM:   3     -.249345853874E+02    -.49933E-03    -.35757E-04  7945    .147E-02     .139E-03                                     
RMM:   4     -.249346881062E+02    -.10272E-03    -.24959E-05  4823    .599E-03     .954E-04                                     
RMM:   5     -.249348038192E+02    -.11571E-03    -.46343E-06  5003    .455E-03     .201E-04                                     
RMM:   6     -.249348420144E+02    -.38195E-04    -.50142E-06  4675    .476E-03     .191E-04                                     
RMM:   7     -.249348440288E+02    -.20144E-05    -.44230E-07  2578    .294E-03                                                  
   29 T=  3061. E= -.19790806E+02 F= -.24934844E+02 E0= -.24855997E+02  EK=  .51440E+01 SP=  .00E+00 SK=  .00E+00 mag=      1.000
       N       E                     dE             d eps       ncg     rms          rms(c)                                      
DAV:   1     -.249238906806E+02     .10951E-01    -.19362E+00 13128    .883E+00     .827E-03                                     
RMM:   2     -.249344092615E+02    -.10519E-01    -.38919E-02 11538    .182E-01     .226E-03                                     
RMM:   3     -.249350121638E+02    -.60290E-03    -.61507E-04  8038    .222E-02     .141E-03                                     
RMM:   4     -.249351412247E+02    -.12906E-03    -.70080E-05  5115    .810E-03     .813E-04                                     
RMM:   5     -.249352282748E+02    -.87050E-04    -.49794E-06  4366    .432E-03     .345E-04                                     
RMM:   6     -.249352434647E+02    -.15190E-04    -.25164E-06  4456    .448E-03                                                  
   30 T=  3061. E= -.19790798E+02 F= -.24935243E+02 E0= -.24856395E+02  EK=  .51444E+01 SP=  .00E+00 SK=  .00E+00 mag=      1.000
       N       E                     dE             d eps       ncg     rms          rms(c)                                      
DAV:   1     -.249261370810E+02     .90912E-02    -.11654E+00 12184    .821E+00     .803E-03                                     
RMM:   2     -.249347790372E+02    -.86420E-02    -.20085E-02 11306    .827E-02     .220E-03                                     
RMM:   3     -.249352359821E+02    -.45694E-03    -.55269E-04  7640    .148E-02     .132E-03                                     
RMM:   4     -.249354383486E+02    -.20237E-03    -.42498E-05  4584    .601E-03     .765E-04                                     
RMM:   5     -.249356010433E+02    -.16269E-03    -.63535E-06  5215    .516E-03     .324E-04                                     
RMM:   6     -.249356421837E+02    -.41140E-04    -.31955E-06  4034    .404E-03     .157E-04                                     
RMM:   7     -.249356526029E+02    -.10419E-04    -.13249E-06  3683    .350E-03                                                  
   31 T=  3062. E= -.19790797E+02 F= -.24935653E+02 E0= -.24856803E+02  EK=  .51449E+01 SP=  .00E+00 SK=  .00E+00 mag=      1.000
       N       E                     dE             d eps       ncg     rms          rms(c)                                      
DAV:   1     -.249284523850E+02     .71898E-02    -.23344E+00 12160    .973E+00     .783E-03                                     
RMM:   2     -.249352347633E+02    -.67824E-02    -.21491E-03 11479    .460E-02     .224E-03                                     
RMM:   3     -.249355507908E+02    -.31603E-03    -.43956E-05  7610    .945E-03     .128E-03                                     
RMM:   4     -.249358949986E+02    -.34421E-03    -.64353E-06  5528    .549E-03     .575E-04                                     
RMM:   5     -.249360165013E+02    -.12150E-03    -.35229E-06  5410    .497E-03     .265E-04                                     
RMM:   6     -.249360466015E+02    -.30100E-04    -.22417E-06  3918    .394E-03     .126E-04                                     
RMM:   7     -.249360659118E+02    -.19310E-04    -.18920E-06  3434    .342E-03                                                  
   32 T=  3062. E= -.19790799E+02 F= -.24936066E+02 E0= -.24857215E+02  EK=  .51453E+01 SP=  .00E+00 SK=  .00E+00 mag=      1.000
       N       E                     dE             d eps       ncg     rms          rms(c)                                      
DAV:   1     -.249289894023E+02     .70572E-02    -.19405E+00 11984    .950E+00     .774E-03                                     
RMM:   2     -.249357684309E+02    -.67790E-02    -.88296E-04 11917    .473E-02     .233E-03                                     
RMM:   3     -.249362524542E+02    -.48402E-03    -.24785E-05  8046    .103E-02     .148E-03                                     
RMM:   4     -.249363488449E+02    -.96391E-04    -.34614E-06  4979    .462E-03     .903E-04                                     
RMM:   5     -.249364259587E+02    -.77114E-04    -.43569E-06  4915    .437E-03     .326E-04                                     
RMM:   6     -.249364584368E+02    -.32478E-04    -.16006E-06  3983    .374E-03     .148E-04                                     
RMM:   7     -.249364759711E+02    -.17534E-04    -.56461E-06  4496    .462E-03                                                  
   33 T=  3062. E= -.19790797E+02 F= -.24936476E+02 E0= -.24857623E+02  EK=  .51457E+01 SP=  .00E+00 SK=  .00E+00 mag=      1.000
       N       E                     dE             d eps       ncg     rms          rms(c)                                      
DAV:   1     -.249280190071E+02     .84394E-02    -.28923E+00 12328    .913E+00     .803E-03                                     
RMM:   2     -.249362242882E+02    -.82053E-02    -.14683E-02 11514    .813E-02     .268E-03                                     
RMM:   3     -.249367381184E+02    -.51383E-03    -.25736E-04  8212    .138E-02     .150E-03                                     
RMM:   4     -.249367615396E+02    -.23421E-04    -.21753E-05  5439    .608E-03                                                  
   34 T=  3062. E= -.19790669E+02 F= -.24936762E+02 E0= -.24857908E+02  EK=  .51461E+01 SP=  .00E+00 SK=  .00E+00 mag=      1.000
       N       E                     dE             d eps       ncg     rms          rms(c)                                      
DAV:   1     -.249277845241E+02     .89536E-02    -.14983E+00 12344    .894E+00     .844E-03                                     
RMM:   2     -.249363792181E+02    -.85947E-02    -.18428E-02 11494    .953E-02     .223E-03                                     
RMM:   3     -.249369553169E+02    -.57610E-03    -.60435E-04  8277    .147E-02     .128E-03                                     
RMM:   4     -.249370085267E+02    -.53210E-04    -.23541E-05  5542    .640E-03     .784E-04                                     
RMM:   5     -.249371824177E+02    -.17389E-03    -.93570E-06  5898    .578E-03     .231E-04                                     
RMM:   6     -.249372694907E+02    -.87073E-04    -.75058E-06  4703    .488E-03     .137E-04                                     
RMM:   7     -.249372912972E+02    -.21807E-04    -.58014E-06  4314    .411E-03                                                  
   35 T=  3063. E= -.19790784E+02 F= -.24937291E+02 E0= -.24858436E+02  EK=  .51465E+01 SP=  .00E+00 SK=  .00E+00 mag=      1.000
       N       E                     dE             d eps       ncg     rms          rms(c)                                      
DAV:   1     -.249293909900E+02     .78785E-02    -.84945E-01 13232    .888E+00     .814E-03                                     
RMM:   2     -.249369179430E+02    -.75270E-02    -.11310E-02 11690    .920E-02     .230E-03                                     
RMM:   3     -.249375069451E+02    -.58900E-03    -.20327E-04  8834    .157E-02     .159E-03                                     
RMM:   4     -.249376015879E+02    -.94643E-04    -.24182E-05  5306    .627E-03     .978E-04                                     
RMM:   5     -.249376214014E+02    -.19814E-04    -.14527E-06  3840    .349E-03                                                  
   36 T=  3063. E= -.19790700E+02 F= -.24937621E+02 E0= -.24858764E+02  EK=  .51469E+01 SP=  .00E+00 SK=  .00E+00 mag=       .999
       N       E                     dE             d eps       ncg     rms          rms(c)                                      
DAV:   1     -.249296732670E+02     .79283E-02    -.27446E+00 12520    .979E+00     .823E-03                                     
RMM:   2     -.249374485302E+02    -.77753E-02    -.10350E-02 11553    .881E-02     .239E-03                                     
RMM:   3     -.249379188623E+02    -.47033E-03    -.13865E-04  8103    .131E-02     .125E-03                                     
RMM:   4     -.249379826743E+02    -.63812E-04    -.83343E-06  5007    .548E-03     .781E-04                                     
RMM:   5     -.249380862492E+02    -.10357E-03    -.31681E-06  4764    .429E-03     .432E-04                                     
RMM:   6     -.249381152644E+02    -.29015E-04    -.37279E-06  4725    .470E-03                                                  
   37 T=  3063. E= -.19790780E+02 F= -.24938115E+02 E0= -.24859257E+02  EK=  .51473E+01 SP=  .00E+00 SK=  .00E+00 mag=       .999
       N       E                     dE             d eps       ncg     rms          rms(c)                                      
DAV:   1     -.249308341862E+02     .72521E-02    -.40101E+00 12616    .104E+01     .789E-03                                     
RMM:   2     -.249374145842E+02    -.65804E-02    -.31954E-03 12277    .616E-02     .277E-03                                     
RMM:   3     -.249379958450E+02    -.58126E-03    -.66511E-05  8417    .114E-02     .139E-03                                     
RMM:   4     -.249383005849E+02    -.30474E-03    -.84750E-06  6267    .623E-03     .616E-04                                     
RMM:   5     -.249384836348E+02    -.18305E-03    -.18633E-05  5920    .665E-03     .245E-04                                     
RMM:   6     -.249385265332E+02    -.42898E-04    -.93707E-06  4782    .544E-03     .154E-04                                     
RMM:   7     -.249385346501E+02    -.81170E-05    -.91260E-06  4385    .469E-03                                                  
   38 T=  3063. E= -.19790784E+02 F= -.24938535E+02 E0= -.24859675E+02  EK=  .51478E+01 SP=  .00E+00 SK=  .00E+00 mag=       .999
       N       E                     dE             d eps       ncg     rms          rms(c)                                      
DAV:   1     -.249314783306E+02     .70482E-02    -.24581E+00 12784    .959E+00     .781E-03                                     
RMM:   2     -.249382867671E+02    -.68084E-02    -.20515E-03 11714    .513E-02     .277E-03                                     
RMM:   3     -.249387140032E+02    -.42724E-03    -.41238E-05  8361    .116E-02     .162E-03                                     
RMM:   4     -.249388976230E+02    -.18362E-03    -.89321E-06  6119    .598E-03     .639E-04                                     
RMM:   5     -.249389212531E+02    -.23630E-04    -.12116E-06  3387    .317E-03                                                  
   39 T=  3064. E= -.19790756E+02 F= -.24938921E+02 E0= -.24860060E+02  EK=  .51482E+01 SP=  .00E+00 SK=  .00E+00 mag=       .999
       N       E                     dE             d eps       ncg     rms          rms(c)                                      
DAV:   1     -.249312395965E+02     .76580E-02    -.14947E+00 12912    .943E+00     .788E-03                                     
RMM:   2     -.249387308194E+02    -.74912E-02    -.82738E-03 11941    .867E-02     .332E-03                                     
RMM:   3     -.249391700821E+02    -.43926E-03    -.18541E-04  9279    .136E-02     .159E-03                                     
RMM:   4     -.249392738027E+02    -.10372E-03    -.20657E-05  5199    .545E-03     .111E-03                                     
RMM:   5     -.249393617572E+02    -.87955E-04    -.28705E-05  6277    .786E-03     .384E-04                                     
RMM:   6     -.249393661338E+02    -.43766E-05    -.29608E-06  3847    .399E-03                                                  
   40 T=  3064. E= -.19790788E+02 F= -.24939366E+02 E0= -.24860504E+02  EK=  .51486E+01 SP=  .00E+00 SK=  .00E+00 mag=       .999
       N       E                     dE             d eps       ncg     rms          rms(c)                                      
DAV:   1     -.249317465831E+02     .76152E-02    -.24713E+00 12824    .930E+00     .798E-03                                     
RMM:   2     -.249389603664E+02    -.72138E-02    -.75970E-03 11934    .761E-02     .214E-03                                     
RMM:   3     -.249395233119E+02    -.56295E-03    -.12423E-04  8400    .131E-02     .106E-03                                     
RMM:   4     -.249397110850E+02    -.18777E-03    -.19910E-05  6163    .749E-03     .447E-04                                     
RMM:   5     -.249397560727E+02    -.44988E-04    -.54539E-06  4872    .516E-03     .193E-04                                     
RMM:   6     -.249397736222E+02    -.17550E-04    -.16056E-05  5010    .600E-03                                                  
   41 T=  3064. E= -.19790781E+02 F= -.24939774E+02 E0= -.24860910E+02  EK=  .51490E+01 SP=  .00E+00 SK=  .00E+00 mag=       .999
       N       E                     dE             d eps       ncg     rms          rms(c)                                      
DAV:   1     -.249311006683E+02     .86554E-02    -.24271E+00 12776    .908E+00     .795E-03                                     
RMM:   2     -.249393876449E+02    -.82870E-02    -.16411E-02 11552    .960E-02     .225E-03                                     
RMM:   3     -.249399471651E+02    -.55952E-03    -.61446E-04  8638    .186E-02     .105E-03                                     
RMM:   4     -.249400449737E+02    -.97809E-04    -.49346E-05  5583    .771E-03     .644E-04                                     
RMM:   5     -.249401639022E+02    -.11893E-03    -.35458E-05  6118    .784E-03     .329E-04                                     
RMM:   6     -.249401796772E+02    -.15775E-04    -.10324E-05  4666    .515E-03                                                  
   42 T=  3064. E= -.19790771E+02 F= -.24940180E+02 E0= -.24861315E+02  EK=  .51494E+01 SP=  .00E+00 SK=  .00E+00 mag=       .999
       N       E                     dE             d eps       ncg     rms          rms(c)                                      
DAV:   1     -.249332804097E+02     .68835E-02    -.19324E+00 12800    .966E+00     .777E-03                                     
RMM:   2     -.249399966678E+02    -.67163E-02    -.11329E-03 11824    .458E-02     .273E-03                                     
RMM:   3     -.249403862332E+02    -.38957E-03    -.58186E-05  8369    .122E-02     .120E-03                                     
RMM:   4     -.249404392419E+02    -.53009E-04    -.34585E-06  5239    .475E-03     .786E-04                                     
RMM:   5     -.249404596296E+02    -.20388E-04    -.52497E-06  4335    .408E-03                                                  
   43 T=  3065. E= -.19790636E+02 F= -.24940460E+02 E0= -.24861594E+02  EK=  .51498E+01 SP=  .00E+00 SK=  .00E+00 mag=       .999
       N       E                     dE             d eps       ncg     rms          rms(c)                                      
DAV:   1     -.249322464566E+02     .81928E-02    -.18507E+00 13352    .923E+00     .792E-03                                     
RMM:   2     -.249401422721E+02    -.78958E-02    -.12737E-02 11922    .933E-02     .235E-03                                     
RMM:   3     -.249406601056E+02    -.51783E-03    -.59901E-04  8787    .152E-02     .109E-03                                     
RMM:   4     -.249408209575E+02    -.16085E-03    -.38712E-05  5744    .677E-03     .765E-04                                     
RMM:   5     -.249409596092E+02    -.13865E-03    -.30440E-05  5887    .790E-03     .330E-04                                     
RMM:   6     -.249410054330E+02    -.45824E-04    -.32102E-05  5493    .781E-03     .178E-04                                     
RMM:   7     -.249410130781E+02    -.76451E-05    -.71419E-06  4294    .484E-03                                                  
   44 T=  3065. E= -.19790774E+02 F= -.24941013E+02 E0= -.24862146E+02  EK=  .51502E+01 SP=  .00E+00 SK=  .00E+00 mag=       .999
       N       E                     dE             d eps       ncg     rms          rms(c)                                      
DAV:   1     -.249318789234E+02     .91265E-02    -.21753E+00 13944    .935E+00     .817E-03                                     
RMM:   2     -.249407743103E+02    -.88954E-02    -.25388E-02 12301    .140E-01     .227E-03                                     
RMM:   3     -.249412571143E+02    -.48280E-03    -.40523E-04  8682    .207E-02     .122E-03                                     
RMM:   4     -.249413475055E+02    -.90391E-04    -.78311E-05  6493    .114E-02     .755E-04                                     
RMM:   5     -.249414052423E+02    -.57737E-04    -.60667E-06  4681    .514E-03     .266E-04                                     
RMM:   6     -.249414259804E+02    -.20738E-04    -.28387E-06  4207    .435E-03                                                  
   45 T=  3065. E= -.19790773E+02 F= -.24941426E+02 E0= -.24862557E+02  EK=  .51507E+01 SP=  .00E+00 SK=  .00E+00 mag=       .999
       N       E                     dE             d eps       ncg     rms          rms(c)                                      
DAV:   1     -.249314068933E+02     .99983E-02    -.19617E+00 13632    .924E+00     .815E-03                                     
RMM:   2     -.249411857417E+02    -.97788E-02    -.32046E-02 11892    .125E-01     .227E-03                                     
RMM:   3     -.249417094538E+02    -.52371E-03    -.62539E-04  8654    .182E-02     .125E-03                                     
RMM:   4     -.249417653442E+02    -.55890E-04    -.47333E-05  5471    .713E-03     .896E-04                                     
RMM:   5     -.249418142344E+02    -.48890E-04    -.16494E-05  5660    .640E-03     .380E-04                                     
RMM:   6     -.249418381082E+02    -.23874E-04    -.14826E-05  5411    .677E-03                                                  
   46 T=  3065. E= -.19790772E+02 F= -.24941838E+02 E0= -.24862968E+02  EK=  .51511E+01 SP=  .00E+00 SK=  .00E+00 mag=       .998
       N       E                     dE             d eps       ncg     rms          rms(c)                                      
DAV:   1     -.249344788083E+02     .73354E-02    -.27312E+00 13440    .931E+00     .785E-03                                     
RMM:   2     -.249414518547E+02    -.69730E-02    -.55982E-03 11880    .721E-02     .263E-03                                     
RMM:   3     -.249419273662E+02    -.47551E-03    -.94688E-05  8412    .140E-02     .133E-03                                     
RMM:   4     -.249420394931E+02    -.11213E-03    -.78480E-06  5182    .557E-03     .725E-04                                     
RMM:   5     -.249421816245E+02    -.14213E-03    -.28463E-05  5754    .775E-03     .336E-04                                     
RMM:   6     -.249422215445E+02    -.39920E-04    -.20322E-05  5280    .700E-03     .245E-04                                     
RMM:   7     -.249422449921E+02    -.23448E-04    -.22300E-05  5141    .698E-03                                                  
   47 T=  3066. E= -.19790765E+02 F= -.24942245E+02 E0= -.24863374E+02  EK=  .51515E+01 SP=  .00E+00 SK=  .00E+00 mag=       .998
       N       E                     dE             d eps       ncg     rms          rms(c)                                      
DAV:   1     -.249347516729E+02     .74699E-02    -.25469E+00 13456    .766E+00     .789E-03                                     
RMM:   2     -.249420448221E+02    -.72931E-02    -.83306E-03 11870    .703E-02     .260E-03                                     
RMM:   3     -.249424388000E+02    -.39398E-03    -.13073E-04  8294    .150E-02     .154E-03                                     
RMM:   4     -.249424969325E+02    -.58133E-04    -.17308E-05  5727    .655E-03     .865E-04                                     
RMM:   5     -.249425988639E+02    -.10193E-03    -.21365E-05  5430    .721E-03     .413E-04                                     
RMM:   6     -.249426395974E+02    -.40734E-04    -.13922E-05  5263    .634E-03     .218E-04                                     
RMM:   7     -.249426586126E+02    -.19015E-04    -.11972E-05  5043    .582E-03                                                  
   48 T=  3066. E= -.19790765E+02 F= -.24942659E+02 E0= -.24863786E+02  EK=  .51519E+01 SP=  .00E+00 SK=  .00E+00 mag=       .998
       N       E                     dE             d eps       ncg     rms          rms(c)                                      
DAV:   1     -.249357925571E+02     .68470E-02    -.30551E+00 13224    .836E+00     .781E-03                                     
RMM:   2     -.249425921698E+02    -.67996E-02    -.29798E-03 11631    .478E-02     .189E-03                                     
RMM:   3     -.249429638369E+02    -.37167E-03    -.71421E-05  7930    .985E-03     .110E-03                                     
RMM:   4     -.249430222720E+02    -.58435E-04    -.72233E-06  5111    .519E-03     .516E-04                                     
RMM:   5     -.249430726550E+02    -.50383E-04    -.44178E-05  5836    .901E-03     .262E-04                                     
RMM:   6     -.249430770003E+02    -.43454E-05    -.20196E-06  3841    .381E-03                                                  
   49 T=  3066. E= -.19790773E+02 F= -.24943077E+02 E0= -.24864203E+02  EK=  .51523E+01 SP=  .00E+00 SK=  .00E+00 mag=       .998
       N       E                     dE             d eps       ncg     rms          rms(c)                                      
DAV:   1     -.249359280998E+02     .71446E-02    -.10114E+00 13584    .800E+00     .792E-03                                     
RMM:   2     -.249430682662E+02    -.71402E-02    -.74729E-03 12123    .845E-02     .191E-03                                     
RMM:   3     -.249434409195E+02    -.37265E-03    -.13546E-04  8668    .147E-02     .109E-03                                     
RMM:   4     -.249434482015E+02    -.72820E-05    -.12046E-05  5749    .639E-03                                                  
   50 T=  3066. E= -.19790735E+02 F= -.24943448E+02 E0= -.24864573E+02  EK=  .51527E+01 SP=  .00E+00 SK=  .00E+00 mag=       .998
       N       E                     dE             d eps       ncg     rms          rms(c)                                      
DAV:   1     -.249369354360E+02     .65055E-02    -.15916E+00 13832    .760E+00     .797E-03                                     
RMM:   2     -.249432977838E+02    -.63623E-02    -.16087E-03 12230    .538E-02     .214E-03                                     
RMM:   3     -.249437696711E+02    -.47189E-03    -.36595E-05  8302    .110E-02     .909E-04                                     
RMM:   4     -.249438703249E+02    -.10065E-03    -.28530E-05  6499    .908E-03     .353E-04                                     
RMM:   5     -.249438866925E+02    -.16368E-04    -.13719E-05  5404    .657E-03                                                  
   51 T=  3067. E= -.19790764E+02 F= -.24943887E+02 E0= -.24865011E+02  EK=  .51531E+01 SP=  .00E+00 SK=  .00E+00 mag=       .997
       N       E                     dE             d eps       ncg     rms          rms(c)                                      
DAV:   1     -.249352129804E+02     .86573E-02    -.18728E+00 13424    .772E+00     .795E-03                                     
RMM:   2     -.249435986280E+02    -.83856E-02    -.20299E-02 12118    .115E-01     .185E-03                                     
RMM:   3     -.249441778846E+02    -.57926E-03    -.35394E-04  8999    .193E-02     .102E-03                                     
RMM:   4     -.249442457564E+02    -.67872E-04    -.41175E-05  6211    .853E-03     .823E-04                                     
RMM:   5     -.249442825139E+02    -.36758E-04    -.46317E-05  6082    .855E-03     .465E-04                                     
RMM:   6     -.249442929105E+02    -.10397E-04    -.45080E-06  4259    .418E-03                                                  
   52 T=  3067. E= -.19790761E+02 F= -.24944293E+02 E0= -.24865416E+02  EK=  .51535E+01 SP=  .00E+00 SK=  .00E+00 mag=       .997
       N       E                     dE             d eps       ncg     rms          rms(c)                                      
DAV:   1     -.249317228459E+02     .12560E-01    -.27178E+00 13752    .701E+00     .863E-03                                     
RMM:   2     -.249440550645E+02    -.12332E-01    -.60723E-02 12041    .157E-01     .231E-03                                     
RMM:   3     -.249445723078E+02    -.51724E-03    -.17432E-03  8495    .243E-02     .128E-03                                     
RMM:   4     -.249446478070E+02    -.75499E-04    -.12710E-04  5981    .102E-02     .875E-04                                     
RMM:   5     -.249446821765E+02    -.34370E-04    -.42735E-05  5997    .880E-03     .524E-04                                     
RMM:   6     -.249446997617E+02    -.17585E-04    -.39540E-06  4340    .423E-03                                                  
   53 T=  3067. E= -.19790759E+02 F= -.24944700E+02 E0= -.24865821E+02  EK=  .51539E+01 SP=  .00E+00 SK=  .00E+00 mag=       .997
       N       E                     dE             d eps       ncg     rms          rms(c)                                      
DAV:   1     -.249382630509E+02     .64191E-02    -.17491E+00 13784    .793E+00     .781E-03                                     
RMM:   2     -.249445091966E+02    -.62461E-02    -.24640E-03 12621    .644E-02     .283E-03                                     
RMM:   3     -.249449595240E+02    -.45033E-03    -.71274E-05  8344    .134E-02     .158E-03                                     
RMM:   4     -.249450849356E+02    -.12541E-03    -.11979E-05  5860    .687E-03     .734E-04                                     
RMM:   5     -.249450915022E+02    -.65665E-05    -.67203E-06  4989    .522E-03                                                  
   54 T=  3067. E= -.19790744E+02 F= -.24945092E+02 E0= -.24866212E+02  EK=  .51543E+01 SP=  .00E+00 SK=  .00E+00 mag=       .997
       N       E                     dE             d eps       ncg     rms          rms(c)                                      
DAV:   1     -.249387531896E+02     .63317E-02    -.24398E+00 14176    .903E+00     .788E-03                                     
RMM:   2     -.249451890111E+02    -.64358E-02    -.26529E-03 12688    .625E-02     .284E-03                                     
RMM:   3     -.249454305680E+02    -.24156E-03    -.98603E-05  9364    .157E-02     .161E-03                                     
RMM:   4     -.249454721664E+02    -.41598E-04    -.14669E-05  5649    .640E-03     .115E-03                                     
RMM:   5     -.249455001705E+02    -.28004E-04    -.57863E-06  4963    .467E-03                                                  
   55 T=  3068. E= -.19790748E+02 F= -.24945500E+02 E0= -.24866620E+02  EK=  .51548E+01 SP=  .00E+00 SK=  .00E+00 mag=       .996
       N       E                     dE             d eps       ncg     rms          rms(c)                                      
DAV:   1     -.249388671662E+02     .66050E-02    -.17973E+00 13752    .840E+00     .782E-03                                     
RMM:   2     -.249453234014E+02    -.64562E-02    -.21544E-03 12456    .549E-02     .204E-03                                     
RMM:   3     -.249457791764E+02    -.45578E-03    -.86609E-05  8358    .130E-02     .120E-03                                     
RMM:   4     -.249458860984E+02    -.10692E-03    -.11887E-04  6977    .124E-02     .539E-04                                     
RMM:   5     -.249459072343E+02    -.21136E-04    -.16401E-05  5316    .579E-03                                                  
   56 T=  3068. E= -.19790748E+02 F= -.24945907E+02 E0= -.24867026E+02  EK=  .51552E+01 SP=  .00E+00 SK=  .00E+00 mag=       .996
       N       E                     dE             d eps       ncg     rms          rms(c)                                      
DAV:   1     -.249331904404E+02     .12696E-01    -.69128E-01 13960    .724E+00     .912E-03                                     
RMM:   2     -.249458064745E+02    -.12616E-01    -.66079E-02 12683    .165E-01     .234E-03                                     
RMM:   3     -.249462879595E+02    -.48148E-03    -.13543E-03  8988    .257E-02     .152E-03                                     
RMM:   4     -.249463122759E+02    -.24316E-04    -.54211E-05  5358    .735E-03                                                  
   57 T=  3068. E= -.19790747E+02 F= -.24946312E+02 E0= -.24867429E+02  EK=  .51556E+01 SP=  .00E+00 SK=  .00E+00 mag=       .996
       N       E                     dE             d eps       ncg     rms          rms(c)                                      
DAV:   1     -.249393015633E+02     .69864E-02    -.16833E+00 14176    .862E+00     .845E-03                                     
RMM:   2     -.249464582869E+02    -.71567E-02    -.11090E-02 12579    .988E-02     .288E-03                                     
RMM:   3     -.249466460516E+02    -.18776E-03    -.24414E-04  8862    .167E-02     .188E-03                                     
RMM:   4     -.249466989826E+02    -.52931E-04    -.29235E-05  6577    .753E-03     .873E-04                                     
RMM:   5     -.249467202256E+02    -.21243E-04    -.39939E-06  5197    .454E-03                                                  
   58 T=  3068. E= -.19790748E+02 F= -.24946720E+02 E0= -.24867836E+02  EK=  .51560E+01 SP=  .00E+00 SK=  .00E+00 mag=       .995
       N       E                     dE             d eps       ncg     rms          rms(c)                                      
DAV:   1     -.249297234596E+02     .16976E-01    -.49335E+00 14392    .846E+00     .111E-02                                     
RMM:   2     -.249471288995E+02    -.17405E-01    -.12023E-01 12713    .214E-01     .354E-03                                     
RMM:   3     -.249470913835E+02     .37516E-04    -.20774E-03  9258    .331E-02     .286E-03                                     
RMM:   4     -.249471070106E+02    -.15627E-04    -.88155E-05  4989    .798E-03                                                  
   59 T=  3069. E= -.19790731E+02 F= -.24947107E+02 E0= -.24868220E+02  EK=  .51564E+01 SP=  .00E+00 SK=  .00E+00 mag=       .995
       N       E                     dE             d eps       ncg     rms          rms(c)                                      
DAV:   1     -.249407824197E+02     .63090E-02    -.23580E+00 14360    .786E+00     .891E-03                                     
RMM:   2     -.249472160369E+02    -.64336E-02    -.80020E-03 12643    .903E-02     .406E-03                                     
RMM:   3     -.249474845318E+02    -.26849E-03    -.27580E-04  8914    .216E-02     .294E-03                                     
RMM:   4     -.249475193149E+02    -.34783E-04    -.91660E-06  6920    .620E-03     .116E-03                                     
RMM:   5     -.249475276602E+02    -.83453E-05    -.23234E-06  4880    .387E-03                                                  
   60 T=  3069. E= -.19790748E+02 F= -.24947528E+02 E0= -.24868641E+02  EK=  .51568E+01 SP=  .00E+00 SK=  .00E+00 mag=       .995
       N       E                     dE             d eps       ncg     rms          rms(c)                                      
DAV:   1     -.249415970931E+02     .59222E-02    -.11291E+00 14112    .808E+00     .927E-03                                     
RMM:   2     -.249472806575E+02    -.56836E-02    -.15810E-03 12774    .614E-02     .381E-03                                     
RMM:   3     -.249477786777E+02    -.49802E-03    -.22046E-04  8936    .192E-02     .299E-03                                     
RMM:   4     -.249478669679E+02    -.88290E-04    -.89967E-05  7031    .116E-02     .177E-03                                     
RMM:   5     -.249479034194E+02    -.36451E-04    -.12445E-05  5698    .537E-03     .514E-04                                     
RMM:   6     -.249479187834E+02    -.15364E-04    -.34553E-06  4119    .397E-03                                                  
   61 T=  3069. E= -.19790736E+02 F= -.24947919E+02 E0= -.24869031E+02  EK=  .51572E+01 SP=  .00E+00 SK=  .00E+00 mag=       .995
       N       E                     dE             d eps       ncg     rms          rms(c)                                      
DAV:   1     -.249419125344E+02     .59909E-02    -.26693E+00 14272    .876E+00     .823E-03                                     
RMM:   2     -.249480034021E+02    -.60909E-02    -.29328E-03 12757    .701E-02     .264E-03                                     
RMM:   3     -.249482413147E+02    -.23791E-03    -.95828E-05  9061    .135E-02     .201E-03                                     
RMM:   4     -.249482619286E+02    -.20614E-04    -.16737E-05  6148    .702E-03                                                  
   62 T=  3069. E= -.19790676E+02 F= -.24948262E+02 E0= -.24869374E+02  EK=  .51576E+01 SP=  .00E+00 SK=  .00E+00 mag=       .994
       N       E                     dE             d eps       ncg     rms          rms(c)                                      
DAV:   1     -.249417818997E+02     .64594E-02    -.15515E+00 14568    .830E+00     .839E-03                                     
RMM:   2     -.249485784779E+02    -.67966E-02    -.17127E-02 12921    .121E-01     .274E-03                                     
RMM:   3     -.249486980993E+02    -.11962E-03    -.26481E-04  9318    .155E-02     .160E-03                                     
RMM:   4     -.249487195925E+02    -.21493E-04    -.17003E-05  5256    .546E-03                                                  
   63 T=  3070. E= -.19790731E+02 F= -.24948720E+02 E0= -.24869830E+02  EK=  .51580E+01 SP=  .00E+00 SK=  .00E+00 mag=       .994
       N       E                     dE             d eps       ncg     rms          rms(c)                                      
DAV:   1     -.249434993526E+02     .51987E-02    -.35975E+00 14648    .859E+00     .847E-03                                     
RMM:   2     -.249489543692E+02    -.54550E-02    -.77718E-03 12999    .101E-01     .300E-03                                     
RMM:   3     -.249490974586E+02    -.14309E-03    -.15072E-04  9329    .153E-02     .191E-03                                     
RMM:   4     -.249490886407E+02     .88179E-05    -.79575E-06  5663    .563E-03                                                  
   64 T=  3070. E= -.19790693E+02 F= -.24949089E+02 E0= -.24870198E+02  EK=  .51584E+01 SP=  .00E+00 SK=  .00E+00 mag=       .993
       N       E                     dE             d eps       ncg     rms          rms(c)                                      
DAV:   1     -.249432867198E+02     .58107E-02    -.16264E+00 14368    .921E+00     .814E-03                                     
RMM:   2     -.249493869356E+02    -.61002E-02    -.92015E-03 13177    .104E-01     .392E-03                                     
RMM:   3     -.249494884551E+02    -.10152E-03    -.10766E-04  9987    .139E-02     .167E-03                                     
RMM:   4     -.249495101240E+02    -.21669E-04    -.79521E-06  5305    .505E-03                                                  
   65 T=  3070. E= -.19790705E+02 F= -.24949510E+02 E0= -.24870618E+02  EK=  .51588E+01 SP=  .00E+00 SK=  .00E+00 mag=       .993
       N       E                     dE             d eps       ncg     rms          rms(c)                                      
DAV:   1     -.249398718116E+02     .96166E-02    -.32536E+00 14712    .933E+00     .869E-03                                     
RMM:   2     -.249495856639E+02    -.97139E-02    -.45471E-02 13298    .124E-01     .288E-03                                     
RMM:   3     -.249498715163E+02    -.28585E-03    -.18088E-03 10037    .234E-02     .171E-03                                     
RMM:   4     -.249499063778E+02    -.34862E-04    -.67887E-05  5837    .627E-03     .124E-03                                     
RMM:   5     -.249499256269E+02    -.19249E-04    -.16073E-05  5345    .487E-03                                                  
   66 T=  3070. E= -.19790713E+02 F= -.24949926E+02 E0= -.24871033E+02  EK=  .51592E+01 SP=  .00E+00 SK=  .00E+00 mag=       .992
       N       E                     dE             d eps       ncg     rms          rms(c)                                      
DAV:   1     -.249427467774E+02     .71596E-02    -.22383E+00 14544    .770E+00     .817E-03                                     
RMM:   2     -.249501019235E+02    -.73551E-02    -.26881E-02 12940    .124E-01     .329E-03                                     
RMM:   3     -.249502855544E+02    -.18363E-03    -.85608E-04  9879    .198E-02     .144E-03                                     
RMM:   4     -.249503083911E+02    -.22837E-04    -.39963E-05  5192    .575E-03                                                  
   67 T=  3070. E= -.19790686E+02 F= -.24950308E+02 E0= -.24871415E+02  EK=  .51596E+01 SP=  .00E+00 SK=  .00E+00 mag=       .992
       N       E                     dE             d eps       ncg     rms          rms(c)                                      
DAV:   1     -.249451241229E+02     .51614E-02    -.22240E+00 14624    .726E+00     .848E-03                                     
RMM:   2     -.249506287926E+02    -.55047E-02    -.81267E-03 13015    .106E-01     .418E-03                                     
RMM:   3     -.249506935544E+02    -.64762E-04    -.99453E-05  9924    .136E-02     .204E-03                                     
RMM:   4     -.249507021505E+02    -.85961E-05    -.56611E-06  5209    .481E-03                                                  
   68 T=  3071. E= -.19790665E+02 F= -.24950702E+02 E0= -.24871808E+02  EK=  .51600E+01 SP=  .00E+00 SK=  .00E+00 mag=       .991
       N       E                     dE             d eps       ncg     rms          rms(c)                                      
DAV:   1     -.249385689468E+02     .12125E-01    -.57149E+00 14496    .863E+00     .116E-02                                     
RMM:   2     -.249509006663E+02    -.12332E-01    -.82053E-02 13424    .216E-01     .546E-03                                     
RMM:   3     -.249510976187E+02    -.19695E-03    -.87638E-04 10222    .255E-02     .231E-03                                     
RMM:   4     -.249511249085E+02    -.27290E-04    -.36199E-05  5112    .616E-03                                                  
   69 T=  3071. E= -.19790667E+02 F= -.24951125E+02 E0= -.24872230E+02  EK=  .51605E+01 SP=  .00E+00 SK=  .00E+00 mag=       .990
       N       E                     dE             d eps       ncg     rms          rms(c)                                      
DAV:   1     -.249457206687E+02     .53770E-02    -.16451E+00 15384    .786E+00     .967E-03                                     
RMM:   2     -.249514422979E+02    -.57216E-02    -.14382E-02 13359    .133E-01     .425E-03                                     
RMM:   3     -.249515241502E+02    -.81852E-04    -.18318E-04  8751    .151E-02     .271E-03                                     
RMM:   4     -.249515532335E+02    -.29083E-04    -.15460E-05  7269    .653E-03                                                  
   70 T=  3071. E= -.19790670E+02 F= -.24951553E+02 E0= -.24872656E+02  EK=  .51609E+01 SP=  .00E+00 SK=  .00E+00 mag=       .990
       N       E                     dE             d eps       ncg     rms          rms(c)                                      
DAV:   1     -.249456589786E+02     .58652E-02    -.16788E+00 15856    .785E+00     .940E-03                                     
RMM:   2     -.249518430641E+02    -.61841E-02    -.22998E-02 13217    .163E-01     .312E-03                                     
RMM:   3     -.249519809785E+02    -.13791E-03    -.34624E-04  9243    .190E-02     .226E-03                                     
RMM:   4     -.249519924149E+02    -.11436E-04    -.29226E-05  5766    .647E-03                                                  
   71 T=  3071. E= -.19790682E+02 F= -.24951992E+02 E0= -.24873095E+02  EK=  .51613E+01 SP=  .00E+00 SK=  .00E+00 mag=       .989
       N       E                     dE             d eps       ncg     rms          rms(c)                                      
DAV:   1     -.249443620238E+02     .76190E-02    -.26212E+00 15184    .753E+00     .915E-03                                     
RMM:   2     -.249522814712E+02    -.79194E-02    -.41968E-02 13099    .200E-01     .368E-03                                     
RMM:   3     -.249523751247E+02    -.93653E-04    -.63799E-04  9516    .218E-02     .257E-03                                     
RMM:   4     -.249523854052E+02    -.10281E-04    -.54784E-05  5514    .760E-03                                                  
   72 T=  3072. E= -.19790643E+02 F= -.24952385E+02 E0= -.24873487E+02  EK=  .51617E+01 SP=  .00E+00 SK=  .00E+00 mag=       .988
       N       E                     dE             d eps       ncg     rms          rms(c)                                      
DAV:   1     -.249487621711E+02     .36130E-02    -.21169E+00 15128    .791E+00     .855E-03                                     
RMM:   2     -.249527559391E+02    -.39938E-02    -.80032E-03 13046    .110E-01     .313E-03                                     
RMM:   3     -.249527956967E+02    -.39758E-04    -.77339E-05  8381    .104E-02     .199E-03                                     
RMM:   4     -.249528210396E+02    -.25343E-04    -.43607E-06  5253    .456E-03                                                  
   73 T=  3072. E= -.19790639E+02 F= -.24952821E+02 E0= -.24873922E+02  EK=  .51622E+01 SP=  .00E+00 SK=  .00E+00 mag=       .988
       N       E                     dE             d eps       ncg     rms          rms(c)                                      
DAV:   1     -.249492889524E+02     .35067E-02    -.32516E+00 14848    .809E+00     .842E-03                                     
RMM:   2     -.249532090989E+02    -.39201E-02    -.70758E-03 13415    .113E-01     .423E-03                                     
RMM:   3     -.249532568116E+02    -.47713E-04    -.80398E-05  9242    .115E-02     .292E-03                                     
RMM:   4     -.249532912288E+02    -.34417E-04    -.11214E-05  7187    .655E-03     .173E-03                                     
RMM:   5     -.249532946730E+02    -.34442E-05    -.12468E-06  4092    .336E-03                                                  
   74 T=  3072. E= -.19790667E+02 F= -.24953295E+02 E0= -.24874394E+02  EK=  .51626E+01 SP=  .00E+00 SK=  .00E+00 mag=       .987
       N       E                     dE             d eps       ncg     rms          rms(c)                                      
DAV:   1     -.249499815420E+02     .33097E-02    -.31965E+00 14736    .888E+00     .874E-03                                     
RMM:   2     -.249536910818E+02    -.37095E-02    -.92535E-03 13352    .113E-01     .401E-03                                     
RMM:   3     -.249537212263E+02    -.30144E-04    -.13336E-04  9559    .112E-02     .219E-03                                     
RMM:   4     -.249537410472E+02    -.19821E-04    -.15641E-05  5584    .517E-03                                                  
   75 T=  3073. E= -.19790659E+02 F= -.24953741E+02 E0= -.24874840E+02  EK=  .51631E+01 SP=  .00E+00 SK=  .00E+00 mag=       .986
       N       E                     dE             d eps       ncg     rms          rms(c)                                      
DAV:   1     -.249498218320E+02     .38994E-02    -.25214E+00 15272    .109E+01     .866E-03                                     
RMM:   2     -.249540877365E+02    -.42659E-02    -.14532E-02 14149    .134E-01     .557E-03                                     
RMM:   3     -.249541888549E+02    -.10112E-03    -.28914E-04 10116    .159E-02     .225E-03                                     
RMM:   4     -.249542026588E+02    -.13804E-04    -.30208E-05  5552    .576E-03                                                  
   76 T=  3073. E= -.19790656E+02 F= -.24954203E+02 E0= -.24875301E+02  EK=  .51635E+01 SP=  .00E+00 SK=  .00E+00 mag=       .985
[...]
DAV:   1     -.255962577813E+02     .81795E-02    -.62098E-04  7640    .536E-01     .221E-02                                     
RMM:   2     -.255968639954E+02    -.60621E-03    -.69059E-04  7605    .622E-02     .609E-02                                     
RMM:   3     -.255962742366E+02     .58976E-03    -.30008E-04  7290    .329E-02     .161E-02                                     
RMM:   4     -.255962592352E+02     .15001E-04    -.35281E-05  4516    .118E-02                                                  
 1183 T=  3464. E= -.19776188E+02 F= -.25596259E+02 E0= -.25534584E+02  EK=  .58201E+01 SP=  .00E+00 SK=  .00E+00 mag=       .000
       N       E                     dE             d eps       ncg     rms          rms(c)                                      
DAV:   1     -.255834424298E+02     .12832E-01    -.62544E-04  7960    .540E-01     .196E-02                                     
RMM:   2     -.255840452059E+02    -.60278E-03    -.62165E-04  7592    .580E-02     .608E-02                                     
RMM:   3     -.255834512189E+02     .59399E-03    -.32155E-04  7320    .338E-02     .156E-02                                     
RMM:   4     -.255834271065E+02     .24112E-04    -.40657E-05  4532    .126E-02                                                  
 1184 T=  3456. E= -.19776102E+02 F= -.25583427E+02 E0= -.25521752E+02  EK=  .58073E+01 SP=  .00E+00 SK=  .00E+00 mag=       .000
       N       E                     dE             d eps       ncg     rms          rms(c)                                      
DAV:   1     -.255667119286E+02     .16739E-01    -.13115E-02  8088    .938E-01     .206E-02                                     
RMM:   2     -.255667733946E+02    -.61466E-04    -.36005E-04  7580    .498E-02     .204E-02                                     
RMM:   3     -.255667599760E+02     .13419E-04    -.58364E-05  4779    .153E-02                                                  
 1185 T=  3446. E= -.19776023E+02 F= -.25566760E+02 E0= -.25505205E+02  EK=  .57907E+01 SP=  .00E+00 SK=  .00E+00 mag=       .000
       N       E                     dE             d eps       ncg     rms          rms(c)                                      
DAV:   1     -.255470155373E+02     .19758E-01    -.17502E-03  9272    .798E-01     .248E-02                                     
RMM:   2     -.255472414596E+02    -.22592E-03    -.66504E-04  7599    .659E-02     .401E-02                                     
RMM:   3     -.255470715933E+02     .16987E-03    -.19982E-04  6723    .273E-02     .214E-02                                     
RMM:   4     -.255470296776E+02     .41916E-04    -.47970E-05  4689    .140E-02     .124E-02                                     
RMM:   5     -.255470289551E+02     .72247E-06    -.12429E-05  3957    .795E-03                                                  
 1186 T=  3434. E= -.19775907E+02 F= -.25547029E+02 E0= -.25485431E+02  EK=  .57711E+01 SP=  .00E+00 SK=  .00E+00 mag=       .000
       N       E                     dE             d eps       ncg     rms          rms(c)                                      
DAV:   1     -.255251098929E+02     .21920E-01    -.68835E-04  9216    .498E-01     .264E-02                                     
RMM:   2     -.255254447842E+02    -.33489E-03    -.50169E-04  7568    .572E-02     .477E-02                                     
RMM:   3     -.255251588401E+02     .28594E-03    -.23721E-04  6981    .294E-02     .220E-02                                     
RMM:   4     -.255251212751E+02     .37565E-04    -.52659E-05  4763    .143E-02     .131E-02                                     
RMM:   5     -.255251286744E+02    -.73993E-05    -.19234E-05  4117    .100E-02                                                  
 1187 T=  3421. E= -.19775841E+02 F= -.25525129E+02 E0= -.25463559E+02  EK=  .57493E+01 SP=  .00E+00 SK=  .00E+00 mag=       .000
       N       E                     dE             d eps       ncg     rms          rms(c)                                      
DAV:   1     -.255018720357E+02     .23249E-01    -.46007E-04  6312    .461E-01     .105E-02                                     
RMM:   2     -.255019169819E+02    -.44946E-04    -.12143E-04  5073    .373E-02     .178E-02                                     
RMM:   3     -.255018760472E+02     .40935E-04    -.34583E-05  4500    .132E-02     .875E-03                                     
RMM:   4     -.255018723664E+02     .36808E-05    -.11003E-05  4280    .743E-03                                                  
 1188 T=  3408. E= -.19775780E+02 F= -.25501872E+02 E0= -.25440348E+02  EK=  .57261E+01 SP=  .00E+00 SK=  .00E+00 mag=       .000
       N       E                     dE             d eps       ncg     rms          rms(c)                                      
DAV:   1     -.254780651929E+02     .23811E-01    -.46627E-04  6576    .454E-01     .158E-02                                     
RMM:   2     -.254780755427E+02    -.10350E-04    -.14191E-04  5066    .334E-02                                                  
 1189 T=  3394. E= -.19775670E+02 F= -.25478076E+02 E0= -.25416566E+02  EK=  .57024E+01 SP=  .00E+00 SK=  .00E+00 mag=       .000
       N       E                     dE             d eps       ncg     rms          rms(c)                                      
DAV:   1     -.254546937484E+02     .23371E-01    -.76954E-04  7080    .559E-01     .381E-02                                     
RMM:   2     -.254595719879E+02    -.48782E-02    -.23572E-03  7645    .103E-01     .173E-01                                     
RMM:   3     -.254545384444E+02     .50335E-02    -.20673E-03  7606    .850E-02     .179E-02                                     
RMM:   4     -.254545570894E+02    -.18645E-04    -.15334E-05  4406    .110E-02                                                  
 1190 T=  3380. E= -.19775559E+02 F= -.25454557E+02 E0= -.25393051E+02  EK=  .56790E+01 SP=  .00E+00 SK=  .00E+00 mag=       .000
       N       E                     dE             d eps       ncg     rms          rms(c)                                      
DAV:   1     -.254322448037E+02     .22294E-01    -.71446E-04  7072    .538E-01     .395E-02                                     
RMM:   2     -.254372954840E+02    -.50507E-02    -.28046E-03  7656    .108E-01     .178E-01                                     
RMM:   3     -.254320888373E+02     .52066E-02    -.22037E-03  7606    .876E-02     .194E-02                                     
RMM:   4     -.254320811451E+02     .76922E-05    -.86653E-05  5380    .189E-02                                                  
 1191 T=  3366. E= -.19775497E+02 F= -.25432081E+02 E0= -.25370543E+02  EK=  .56566E+01 SP=  .00E+00 SK=  .00E+00 mag=       .000
       N       E                     dE             d eps       ncg     rms          rms(c)                                      
DAV:   1     -.254113871589E+02     .20702E-01    -.76380E-04  8312    .574E-01     .228E-02                                     
RMM:   2     -.254122398686E+02    -.85271E-03    -.82878E-04  7634    .698E-02     .751E-02                                     
RMM:   3     -.254113887651E+02     .85110E-03    -.44961E-04  7514    .399E-02     .171E-02                                     
RMM:   4     -.254113589187E+02     .29846E-04    -.53157E-05  4763    .143E-02                                                  
 1192 T=  3354. E= -.19775459E+02 F= -.25411359E+02 E0= -.25349863E+02  EK=  .56359E+01 SP=  .00E+00 SK=  .00E+00 mag=       .000
       N       E                     dE             d eps       ncg     rms          rms(c)                                      
DAV:   1     -.253930367676E+02     .18352E-01    -.66381E-04  8576    .468E-01     .136E-02                                     
RMM:   2     -.253931805830E+02    -.14382E-03    -.32049E-04  7546    .530E-02     .308E-02                                     
RMM:   3     -.253930546471E+02     .12594E-03    -.82855E-05  5109    .180E-02     .114E-02                                     
RMM:   4     -.253930439589E+02     .10688E-04    -.17019E-05  4415    .884E-03                                                  
 1193 T=  3343. E= -.19775414E+02 F= -.25393044E+02 E0= -.25331516E+02  EK=  .56176E+01 SP=  .00E+00 SK=  .00E+00 mag=       .000
       N       E                     dE             d eps       ncg     rms          rms(c)                                      
DAV:   1     -.253776620829E+02     .15393E-01    -.10207E-03  8776    .575E-01     .182E-02                                     
RMM:   2     -.253778145920E+02    -.15251E-03    -.29712E-04  7519    .518E-02     .316E-02                                     
RMM:   3     -.253776835927E+02     .13100E-03    -.67456E-05  4874    .163E-02     .136E-02                                     
RMM:   4     -.253776834765E+02     .11618E-06    -.16779E-05  4386    .895E-03                                                  
 1194 T=  3334. E= -.19775352E+02 F= -.25377683E+02 E0= -.25316173E+02  EK=  .56023E+01 SP=  .00E+00 SK=  .00E+00 mag=       .000
       N       E                     dE             d eps       ncg     rms          rms(c)                                      
DAV:   1     -.253657535514E+02     .11930E-01    -.97912E-04  9032    .653E-01     .137E-02                                     
RMM:   2     -.253658980579E+02    -.14451E-03    -.33769E-04  7571    .544E-02     .310E-02                                     
RMM:   3     -.253657669842E+02     .13107E-03    -.10305E-04  5480    .198E-02     .116E-02                                     
RMM:   4     -.253657483837E+02     .18601E-04    -.23537E-05  4473    .101E-02                                                  
 1195 T=  3327. E= -.19775309E+02 F= -.25365748E+02 E0= -.25304182E+02  EK=  .55904E+01 SP=  .00E+00 SK=  .00E+00 mag=       .000
       N       E                     dE             d eps       ncg     rms          rms(c)                                      
DAV:   1     -.253575617717E+02     .82052E-02    -.79230E-04  8720    .478E-01     .158E-02                                     
RMM:   2     -.253576655659E+02    -.10379E-03    -.30802E-04  7574    .563E-02     .268E-02                                     
RMM:   3     -.253575811310E+02     .84435E-04    -.73292E-05  4964    .169E-02     .126E-02                                     
RMM:   4     -.253575677759E+02     .13355E-04    -.23393E-05  4465    .101E-02                                                  
 1196 T=  3322. E= -.19775276E+02 F= -.25357568E+02 E0= -.25296012E+02  EK=  .55823E+01 SP=  .00E+00 SK=  .00E+00 mag=       .000
       N       E                     dE             d eps       ncg     rms          rms(c)                                      
DAV:   1     -.253533584818E+02     .42226E-02    -.84504E-04  8960    .461E-01     .125E-02                                     
RMM:   2     -.253534334495E+02    -.74968E-04    -.28597E-04  7559    .565E-02     .216E-02                                     
RMM:   3     -.253533734431E+02     .60006E-04    -.36523E-05  4515    .123E-02     .929E-03                                     
RMM:   4     -.253533698253E+02     .36178E-05    -.16440E-05  4330    .859E-03                                                  
 1197 T=  3320. E= -.19775258E+02 F= -.25353370E+02 E0= -.25291734E+02  EK=  .55781E+01 SP=  .00E+00 SK=  .00E+00 mag=       .000
       N       E                     dE             d eps       ncg     rms          rms(c)                                      
DAV:   1     -.253532321968E+02     .14125E-03    -.74033E-04  8696    .454E-01     .108E-02                                     
RMM:   2     -.253532820302E+02    -.49833E-04    -.27828E-04  7536    .569E-02     .176E-02                                     
RMM:   3     -.253532484467E+02     .33583E-04    -.31422E-05  4469    .115E-02     .924E-03                                     
RMM:   4     -.253532412491E+02     .71976E-05    -.12306E-05  4271    .748E-03                                                  
 1198 T=  3319. E= -.19775246E+02 F= -.25353241E+02 E0= -.25291611E+02  EK=  .55780E+01 SP=  .00E+00 SK=  .00E+00 mag=       .000
       N       E                     dE             d eps       ncg     rms          rms(c)                                      
DAV:   1     -.253571315787E+02    -.38831E-02    -.33673E-02  9128    .559E-01     .106E-02                                     
RMM:   2     -.253571763822E+02    -.44803E-04    -.29352E-04  7549    .547E-02     .159E-02                                     
RMM:   3     -.253571508997E+02     .25482E-04    -.38919E-05  4513    .127E-02                                                  
 1199 T=  3322. E= -.19775244E+02 F= -.25357151E+02 E0= -.25295503E+02  EK=  .55819E+01 SP=  .00E+00 SK=  .00E+00 mag=       .000
       N       E                     dE             d eps       ncg     rms          rms(c)                                      
DAV:   1     -.253648994551E+02    -.77231E-02    -.17597E-03  8984    .467E-01     .166E-02                                     
RMM:   2     -.253649865812E+02    -.87126E-04    -.42911E-04  7600    .571E-02     .219E-02                                     
RMM:   3     -.253649318963E+02     .54685E-04    -.56035E-05  4714    .151E-02     .121E-02                                     
RMM:   4     -.253649187024E+02     .13194E-04    -.10056E-05  3982    .769E-03                                                  
 1200 T=  3326. E= -.19775236E+02 F= -.25364919E+02 E0= -.25303183E+02  EK=  .55897E+01 SP=  .00E+00 SK=  .00E+00 mag=       .000
       N       E                     dE             d eps       ncg     rms          rms(c)                                      
DAV:   1     -.253762982103E+02    -.11366E-01    -.41427E-04  7408    .390E-01     .168E-02                                     
RMM:   2     -.253763754573E+02    -.77247E-04    -.44456E-04  7595    .504E-02     .221E-02                                     
RMM:   3     -.253763285900E+02     .46867E-04    -.79185E-05  5100    .175E-02     .140E-02                                     
RMM:   4     -.253763065091E+02     .22081E-04    -.25930E-05  4467    .107E-02                                                  
 1201 T=  3333. E= -.19775250E+02 F= -.25376307E+02 E0= -.25314483E+02  EK=  .56011E+01 SP=  .00E+00 SK=  .00E+00 mag=       .000
       N       E                     dE             d eps       ncg     rms          rms(c)                                      
DAV:   1     -.253909178540E+02    -.14589E-01    -.40123E-04  7168    .426E-01     .153E-02                                     
RMM:   2     -.253909524188E+02    -.34565E-04    -.27774E-04  7553    .435E-02     .160E-02                                     
RMM:   3     -.253909284366E+02     .23982E-04    -.58941E-05  4833    .152E-02                                                  
 1202 T=  3342. E= -.19775257E+02 F= -.25390928E+02 E0= -.25329087E+02  EK=  .56157E+01 SP=  .00E+00 SK=  .00E+00 mag=       .000
       N       E                     dE             d eps       ncg     rms          rms(c)                                      
DAV:   1     -.254083678569E+02    -.17415E-01    -.47042E-04  7664    .423E-01     .202E-02                                     
RMM:   2     -.254093844065E+02    -.10165E-02    -.75833E-04  7600    .657E-02     .794E-02                                     
RMM:   3     -.254083498838E+02     .10345E-02    -.43630E-04  7505    .394E-02     .923E-03                                     
RMM:   4     -.254083518342E+02    -.19504E-05    -.84159E-06  4317    .682E-03                                                  
 1203 T=  3352. E= -.19775268E+02 F= -.25408352E+02 E0= -.25346463E+02  EK=  .56331E+01 SP=  .00E+00 SK=  .00E+00 mag=       .000
       N       E                     dE             d eps       ncg     rms          rms(c)                                      
DAV:   1     -.254281165354E+02    -.19767E-01    -.43255E-04  6144    .436E-01     .212E-02                                     
RMM:   2     -.254292007949E+02    -.10843E-02    -.83120E-04  7598    .629E-02     .815E-02                                     
RMM:   3     -.254280975690E+02     .11032E-02    -.51032E-04  7514    .424E-02     .137E-02                                     
RMM:   4     -.254280796337E+02     .17935E-04    -.39143E-05  4536    .125E-02                                                  
 1204 T=  3364. E= -.19775295E+02 F= -.25428080E+02 E0= -.25366103E+02  EK=  .56528E+01 SP=  .00E+00 SK=  .00E+00 mag=       .000
       N       E                     dE             d eps       ncg     rms          rms(c)                                      
DAV:   1      .112000448714E+04     .11200E+04    -.63503E+04  7616    .106E+03                                                  
DAV:   2      .149242249083E+02    -.11051E+04    -.10553E+04  7888    .297E+02                                                  
DAV:   3     -.284851896200E+02    -.43409E+02    -.42775E+02  8352    .710E+01                                                  
DAV:   4     -.289276203763E+02    -.44243E+00    -.44148E+00  8264    .666E+00                                                  
DAV:   5     -.289359095537E+02    -.82892E-02    -.82888E-02  8480    .724E-01     .101E+01                                     
RMM:   6     -.262535059917E+02     .26824E+01    -.72946E+00  7618    .940E+00     .398E+00                                     
RMM:   7     -.324994160033E+02    -.62459E+01    -.10171E+01  7616    .649E+00     .677E+00                                     
RMM:   8     -.265925649063E+02     .59069E+01    -.48222E+00  7630    .430E+00     .288E+00                                     
RMM:   9     -.254516286149E+02     .11409E+01    -.12713E+00  7657    .214E+00     .106E+00                                     
RMM:  10     -.254434826541E+02     .81460E-02    -.42317E-02  7648    .554E-01     .622E-01                                     
RMM:  11     -.254503226608E+02    -.68400E-02    -.14876E-02  7652    .326E-01     .208E-01                                     
RMM:  12     -.254498335185E+02     .48914E-03    -.46454E-03  7652    .187E-01     .924E-02                                     
RMM:  13     -.254495720500E+02     .26147E-03    -.13067E-03  7618    .114E-01     .424E-02                                     
RMM:  14     -.254495692985E+02     .27516E-05    -.92374E-05  4820    .265E-02                                                  
 1205 T=  3377. E= -.19775329E+02 F= -.25449569E+02 E0= -.25387511E+02  EK=  .56742E+01 SP=  .00E+00 SK=  .00E+00 mag=       .000
       N       E                     dE             d eps       ncg     rms          rms(c)                                      
DAV:   1     -.254720165512E+02    -.22445E-01    -.17216E-01  7920    .684E-01     .124E-01                                     
RMM:   2     -.254723030525E+02    -.28650E-03    -.50743E-03  7625    .175E-01     .879E-02                                     
RMM:   3     -.254727212333E+02    -.41818E-03    -.51242E-04  7593    .445E-02     .636E-02                                     
RMM:   4     -.254724259816E+02     .29525E-03    -.49331E-04  7562    .423E-02     .393E-02                                     
RMM:   5     -.254723472161E+02     .78766E-04    -.24694E-04  6747    .295E-02     .244E-02                                     
RMM:   6     -.254722735530E+02     .73663E-04    -.11128E-04  5564    .199E-02     .659E-03                                     
RMM:   7     -.254722733448E+02     .20823E-06    -.45917E-06  3594    .586E-03                                                  
 1206 T=  3390. E= -.19775378E+02 F= -.25472273E+02 E0= -.25410190E+02  EK=  .56969E+01 SP=  .00E+00 SK=  .00E+00 mag=       .000
