       N       E                     dE             d eps       ncg     rms          rms(c)                                      
DAV:   1      .111299089040E+04     .11130E+04    -.62895E+04 16320    .996E+02                                                  
DAV:   2      .172481539435E+02    -.10957E+04    -.10387E+04 16912    .279E+02                                                  
DAV:   3     -.253890560057E+02    -.42637E+02    -.42088E+02 18008    .672E+01                                                  
DAV:   4     -.257645728993E+02    -.37552E+00    -.37501E+00 18096    .607E+00                                                  
DAV:   5     -.257688808244E+02    -.43079E-02    -.43078E-02 18248    .560E-01     .168E+01                                     
RMM:   6     -.242514611647E+02     .15174E+01    -.57364E+00 16320    .812E+00     .107E+01                                     
RMM:   7     -.320510079114E+02    -.77995E+01    -.12465E+01 16345    .714E+00     .947E+00                                     
RMM:   8     -.273070336627E+02     .47440E+01    -.91527E+00 16359    .557E+00     .563E+00                                     
RMM:   9     -.258512474520E+02     .14558E+01    -.32431E+00 16395    .322E+00     .445E+00                                     
RMM:  10     -.249023030850E+02     .94894E+00    -.76290E-01 16373    .191E+00     .119E+00                                     
RMM:  11     -.248247435101E+02     .77560E-01    -.16046E-01 16403    .920E-01     .273E-01                                     
RMM:  12     -.248219399544E+02     .28036E-02    -.70099E-03 16419    .224E-01     .140E-01                                     
RMM:  13     -.248231824584E+02    -.12425E-02    -.96858E-04 16399    .908E-02     .535E-02                                     
RMM:  14     -.248237848124E+02    -.60235E-03    -.64598E-05 10488    .232E-02     .249E-02                                     
RMM:  15     -.248240063059E+02    -.22149E-03    -.41469E-05  9936    .200E-02     .918E-03                                     
RMM:  16     -.248240256641E+02    -.19358E-04    -.83649E-06  9541    .879E-03                                                  
    1 T=  3072. E= -.19661855E+02 F= -.24824026E+02 E0= -.24744156E+02  EK=  .51622E+01 SP=  .00E+00 SK=  .00E+00 mag=       .999
       N       E                     dE             d eps       ncg     rms          rms(c)                                      
DAV:   1     -.243685884059E+02     .45542E+00    -.15518E-01 17128    .154E-01     .301E-01                                     
RMM:   2     -.245081946059E+02    -.13961E+00    -.79614E-04 10922    .367E-02     .217E-01                                     
RMM:   3     -.248028166922E+02    -.29462E+00    -.13303E-03 11610    .409E-02     .221E-02                                     
RMM:   4     -.248199242313E+02    -.17108E-01    -.22168E-05  9267    .961E-03     .120E-02                                     
RMM:   5     -.248240784580E+02    -.41542E-02    -.23964E-05  7152    .637E-03     .218E-03                                     
RMM:   6     -.248238090202E+02     .26944E-03    -.79209E-06  5220    .450E-03     .573E-04                                     
RMM:   7     -.248241339951E+02    -.32497E-03    -.96646E-06  4440    .408E-03     .163E-04                                     
RMM:   8     -.248241140520E+02     .19943E-04    -.23872E-06  3352    .292E-03                                                  
    2 T=  3072. E= -.19661835E+02 F= -.24824114E+02 E0= -.24744244E+02  EK=  .51623E+01 SP=  .00E+00 SK=  .00E+00 mag=      1.000
       N       E                     dE             d eps       ncg     rms          rms(c)                                      
DAV:   1     -.247697405231E+02     .54393E-01    -.21254E-01 12272    .458E+00     .417E-02                                     
RMM:   2     -.247867499674E+02    -.17009E-01    -.17748E-02 11509    .101E-01     .273E-02                                     
RMM:   3     -.248227855378E+02    -.36036E-01    -.56283E-04 11032    .276E-02     .171E-02                                     
RMM:   4     -.248232325401E+02    -.44700E-03    -.63583E-05 10153    .121E-02     .296E-03                                     
RMM:   5     -.248234872573E+02    -.25472E-03    -.61437E-06  4958    .393E-03     .179E-03                                     
RMM:   6     -.248239339471E+02    -.44669E-03    -.24723E-05  5629    .529E-03     .123E-03                                     
RMM:   7     -.248241316215E+02    -.19767E-03    -.12750E-05  5119    .531E-03     .546E-04                                     
RMM:   8     -.248241920678E+02    -.60446E-04    -.14085E-06  3413    .273E-03     .311E-04                                     
RMM:   9     -.248242296043E+02    -.37536E-04    -.28704E-06  3228    .302E-03     .107E-04                                     
RMM:  10     -.248242467411E+02    -.17137E-04    -.10414E-06  2769    .276E-03                                                  
    3 T=  3072. E= -.19661856E+02 F= -.24824247E+02 E0= -.24744377E+02  EK=  .51624E+01 SP=  .00E+00 SK=  .00E+00 mag=      1.000
       N       E                     dE             d eps       ncg     rms          rms(c)                                      
DAV:   1     -.248145135189E+02     .97161E-02    -.16398E+00 13800    .933E+00     .970E-03                                     
RMM:   2     -.248202589581E+02    -.57454E-02    -.22582E-02 12054    .124E-01     .482E-03                                     
RMM:   3     -.248214943789E+02    -.12354E-02    -.54699E-04  8044    .186E-02     .293E-03                                     
RMM:   4     -.248237489069E+02    -.22545E-02    -.60942E-05  7110    .868E-03     .106E-03                                     
RMM:   5     -.248242807376E+02    -.53183E-03    -.10636E-05  5873    .563E-03     .353E-04                                     
RMM:   6     -.248243326201E+02    -.51883E-04    -.33116E-06  4501    .393E-03     .207E-04                                     
RMM:   7     -.248243479046E+02    -.15284E-04    -.88647E-07  3020    .277E-03                                                  
    4 T=  3072. E= -.19661845E+02 F= -.24824348E+02 E0= -.24744479E+02  EK=  .51625E+01 SP=  .00E+00 SK=  .00E+00 mag=      1.000
       N       E                     dE             d eps       ncg     rms          rms(c)                                      
DAV:   1     -.248166624259E+02     .76702E-02    -.26287E+00 11856    .897E+00     .826E-03                                     
RMM:   2     -.248230468186E+02    -.63844E-02    -.32406E-03 11101    .408E-02     .242E-03                                     
RMM:   3     -.248236037561E+02    -.55694E-03    -.85656E-05  7617    .874E-03     .150E-03                                     
RMM:   4     -.248239698552E+02    -.36610E-03    -.10855E-05  5689    .504E-03     .679E-04                                     
RMM:   5     -.248243463530E+02    -.37650E-03    -.24429E-06  4542    .394E-03     .183E-04                                     
RMM:   6     -.248244643109E+02    -.11796E-03    -.11427E-05  5039    .517E-03     .114E-04                                     
RMM:   7     -.248244684390E+02    -.41281E-05    -.78088E-07  2680    .284E-03                                                  
    5 T=  3072. E= -.19661851E+02 F= -.24824468E+02 E0= -.24744601E+02  EK=  .51626E+01 SP=  .00E+00 SK=  .00E+00 mag=      1.000
       N       E                     dE             d eps       ncg     rms          rms(c)                                      
DAV:   1     -.248163814096E+02     .80829E-02    -.29710E+00 11584    .105E+01     .802E-03                                     
RMM:   2     -.248235295789E+02    -.71482E-02    -.69830E-03 11421    .667E-02     .268E-03                                     
RMM:   3     -.248239275352E+02    -.39796E-03    -.10247E-04  8236    .106E-02     .195E-03                                     
RMM:   4     -.248243022599E+02    -.37472E-03    -.10283E-05  5530    .503E-03     .102E-03                                     
RMM:   5     -.248244422152E+02    -.13996E-03    -.25720E-06  5144    .404E-03     .393E-04                                     
RMM:   6     -.248245441016E+02    -.10189E-03    -.39597E-06  4088    .383E-03     .196E-04                                     
RMM:   7     -.248245708098E+02    -.26708E-04    -.19411E-06  4298    .354E-03                                                  
    6 T=  3072. E= -.19661837E+02 F= -.24824571E+02 E0= -.24744703E+02  EK=  .51627E+01 SP=  .00E+00 SK=  .00E+00 mag=      1.000
       N       E                     dE             d eps       ncg     rms          rms(c)                                      
DAV:   1     -.248136658158E+02     .10878E-01    -.10112E+00 12712    .916E+00     .841E-03                                     
RMM:   2     -.248237742819E+02    -.10108E-01    -.34769E-02 11735    .145E-01     .318E-03                                     
RMM:   3     -.248243532615E+02    -.57898E-03    -.64103E-04  9325    .183E-02     .170E-03                                     
RMM:   4     -.248244366279E+02    -.83366E-04    -.41015E-05  5173    .641E-03     .133E-03                                     
RMM:   5     -.248245828268E+02    -.14620E-03    -.57217E-06  5560    .473E-03     .426E-04                                     
RMM:   6     -.248245802947E+02     .25322E-05    -.11716E-06  3386    .308E-03                                                  
    7 T=  3072. E= -.19661731E+02 F= -.24824580E+02 E0= -.24744714E+02  EK=  .51628E+01 SP=  .00E+00 SK=  .00E+00 mag=      1.000
       N       E                     dE             d eps       ncg     rms          rms(c)                                      
DAV:   1     -.248164202365E+02     .81626E-02    -.11820E+00 12552    .837E+00     .798E-03                                     
RMM:   2     -.248238164274E+02    -.73962E-02    -.88866E-03 11867    .698E-02     .262E-03                                     
RMM:   3     -.248243618652E+02    -.54544E-03    -.24294E-04  9133    .121E-02     .171E-03                                     
RMM:   4     -.248245746299E+02    -.21276E-03    -.28190E-05  5225    .529E-03     .101E-03                                     
RMM:   5     -.248247270764E+02    -.15245E-03    -.52645E-06  4942    .416E-03     .389E-04                                     
RMM:   6     -.248247687124E+02    -.41636E-04    -.10441E-06  3394    .324E-03     .122E-04                                     
RMM:   7     -.248247896948E+02    -.20982E-04    -.13160E-07  2264    .272E-03                                                  
    8 T=  3072. E= -.19661823E+02 F= -.24824790E+02 E0= -.24744923E+02  EK=  .51630E+01 SP=  .00E+00 SK=  .00E+00 mag=      1.000
       N       E                     dE             d eps       ncg     rms          rms(c)                                      
DAV:   1     -.248174312445E+02     .73375E-02    -.16753E+00 11456    .892E+00     .794E-03                                     
RMM:   2     -.248241318886E+02    -.67006E-02    -.16695E-04 10784    .234E-02     .309E-03                                     
RMM:   3     -.248244470851E+02    -.31520E-03    -.59828E-06  8151    .637E-03     .216E-03                                     
RMM:   4     -.248246292985E+02    -.18221E-03    -.21867E-06  5500    .395E-03     .131E-03                                     
RMM:   5     -.248248594730E+02    -.23017E-03    -.69730E-06  5836    .515E-03     .484E-04                                     
RMM:   6     -.248248646896E+02    -.52166E-05    -.10715E-06  3897    .332E-03                                                  
    9 T=  3073. E= -.19661777E+02 F= -.24824865E+02 E0= -.24744999E+02  EK=  .51631E+01 SP=  .00E+00 SK=  .00E+00 mag=      1.000
       N       E                     dE             d eps       ncg     rms          rms(c)                                      
DAV:   1     -.248170020549E+02     .78574E-02    -.13542E+00 12328    .980E+00     .805E-03                                     
RMM:   2     -.248242919080E+02    -.72899E-02    -.50688E-03 11675    .672E-02     .476E-03                                     
RMM:   3     -.248248382066E+02    -.54630E-03    -.90849E-05  9828    .114E-02     .220E-03                                     
RMM:   4     -.248248989821E+02    -.60775E-04    -.10322E-05  5414    .510E-03     .113E-03                                     
RMM:   5     -.248250153676E+02    -.11639E-03    -.50363E-06  5809    .491E-03     .411E-04                                     
RMM:   6     -.248250280587E+02    -.12691E-04    -.23521E-07  2652    .269E-03                                                  
   10 T=  3073. E= -.19661819E+02 F= -.24825028E+02 E0= -.24745163E+02  EK=  .51632E+01 SP=  .00E+00 SK=  .00E+00 mag=      1.000
       N       E                     dE             d eps       ncg     rms          rms(c)                                      
DAV:   1     -.248174921001E+02     .75233E-02    -.19453E+00 11816    .102E+01     .791E-03                                     
RMM:   2     -.248244116477E+02    -.69195E-02    -.23611E-03 11347    .451E-02     .321E-03                                     
RMM:   3     -.248248428829E+02    -.43124E-03    -.30934E-05  9278    .865E-03     .207E-03                                     
RMM:   4     -.248250155926E+02    -.17271E-03    -.56057E-06  6114    .502E-03     .893E-04                                     
RMM:   5     -.248251098824E+02    -.94290E-04    -.12904E-06  3753    .324E-03     .574E-04                                     
RMM:   6     -.248251627193E+02    -.52837E-04    -.10410E-06  3994    .336E-03     .361E-04                                     
RMM:   7     -.248251740543E+02    -.11335E-04    -.34640E-07  2910    .293E-03                                                  
   11 T=  3073. E= -.19661841E+02 F= -.24825174E+02 E0= -.24745310E+02  EK=  .51633E+01 SP=  .00E+00 SK=  .00E+00 mag=      1.000
       N       E                     dE             d eps       ncg     rms          rms(c)                                      
DAV:   1     -.248123037114E+02     .12859E-01    -.29310E+00 12344    .101E+01     .878E-03                                     
RMM:   2     -.248243509547E+02    -.12047E-01    -.52852E-02 11652    .130E-01     .375E-03                                     
RMM:   3     -.248250403246E+02    -.68937E-03    -.13682E-03  9943    .207E-02     .135E-03                                     
RMM:   4     -.248251172787E+02    -.76954E-04    -.20753E-04  4819    .743E-03     .100E-03                                     
RMM:   5     -.248252138920E+02    -.96613E-04    -.13746E-05  4976    .441E-03     .893E-04                                     
RMM:   6     -.248252708481E+02    -.56956E-04    -.29788E-06  4503    .382E-03     .623E-04                                     
RMM:   7     -.248252975890E+02    -.26741E-04    -.45634E-07  2932    .278E-03                                                  
   12 T=  3073. E= -.19661838E+02 F= -.24825298E+02 E0= -.24745434E+02  EK=  .51635E+01 SP=  .00E+00 SK=  .00E+00 mag=      1.000
       N       E                     dE             d eps       ncg     rms          rms(c)                                      
DAV:   1     -.248172821465E+02     .79887E-02    -.36821E+00 11800    .985E+00     .803E-03                                     
RMM:   2     -.248244856694E+02    -.72035E-02    -.69186E-03 11466    .511E-02     .305E-03                                     
RMM:   3     -.248252139871E+02    -.72832E-03    -.21996E-04  8967    .112E-02     .132E-03                                     
RMM:   4     -.248252584031E+02    -.44416E-04    -.38735E-05  5762    .545E-03     .105E-03                                     
RMM:   5     -.248253539613E+02    -.95558E-04    -.24782E-06  3941    .342E-03     .389E-04                                     
RMM:   6     -.248254308196E+02    -.76858E-04    -.28132E-06  4567    .438E-03     .262E-04                                     
RMM:   7     -.248254347278E+02    -.39082E-05    -.50608E-07  2462    .269E-03                                                  
   13 T=  3073. E= -.19661850E+02 F= -.24825435E+02 E0= -.24745572E+02  EK=  .51636E+01 SP=  .00E+00 SK=  .00E+00 mag=      1.000
       N       E                     dE             d eps       ncg     rms          rms(c)                                      
DAV:   1     -.248177519348E+02     .76789E-02    -.15337E+00 11832    .923E+00     .793E-03                                     
RMM:   2     -.248247532763E+02    -.70013E-02    -.32306E-03 11865    .605E-02     .420E-03                                     
RMM:   3     -.248248864150E+02    -.13314E-03    -.43951E-05  9813    .111E-02     .240E-03                                     
RMM:   4     -.248249690650E+02    -.82650E-04    -.51451E-06  5288    .465E-03     .173E-03                                     
RMM:   5     -.248253557425E+02    -.38668E-03    -.95626E-06  6950    .562E-03     .611E-04                                     
RMM:   6     -.248254525314E+02    -.96789E-04    -.17519E-06  4091    .374E-03     .383E-04                                     
RMM:   7     -.248255411407E+02    -.88609E-04    -.18586E-06  3348    .311E-03     .252E-04                                     
RMM:   8     -.248255662306E+02    -.25090E-04    -.93419E-07  3508    .319E-03                                                  
   14 T=  3073. E= -.19661855E+02 F= -.24825566E+02 E0= -.24745703E+02  EK=  .51637E+01 SP=  .00E+00 SK=  .00E+00 mag=      1.000
       N       E                     dE             d eps       ncg     rms          rms(c)                                      
DAV:   1     -.248180659841E+02     .74752E-02    -.24981E+00 11232    .835E+00     .790E-03                                     
RMM:   2     -.248247422684E+02    -.66763E-02    -.14555E-03 11428    .446E-02     .448E-03                                     
RMM:   3     -.248251872186E+02    -.44495E-03    -.21426E-05  9352    .827E-03     .239E-03                                     
RMM:   4     -.248254231458E+02    -.23593E-03    -.25443E-06  5177    .424E-03     .129E-03                                     
RMM:   5     -.248256062388E+02    -.18309E-03    -.44037E-06  5259    .429E-03     .828E-04                                     
RMM:   6     -.248256403913E+02    -.34152E-04    -.12591E-06  3939    .343E-03     .452E-04                                     
RMM:   7     -.248256564263E+02    -.16035E-04    -.15853E-06  3691    .308E-03                                                  
   15 T=  3073. E= -.19661816E+02 F= -.24825656E+02 E0= -.24745794E+02  EK=  .51638E+01 SP=  .00E+00 SK=  .00E+00 mag=      1.000
       N       E                     dE             d eps       ncg     rms          rms(c)                                      
DAV:   1     -.248178623800E+02     .77780E-02    -.24400E+00 12472    .917E+00     .801E-03                                     
RMM:   2     -.248250294116E+02    -.71670E-02    -.48202E-03 11891    .629E-02     .547E-03                                     
RMM:   3     -.248254544031E+02    -.42499E-03    -.10807E-04  9505    .108E-02     .435E-03                                     
RMM:   4     -.248255921701E+02    -.13777E-03    -.15050E-05  5752    .505E-03     .281E-03                                     
RMM:   5     -.248257460695E+02    -.15390E-03    -.66177E-06  8179    .565E-03     .826E-04                                     
RMM:   6     -.248257459074E+02     .16209E-06    -.37654E-07  2676    .216E-03                                                  
   16 T=  3073. E= -.19661773E+02 F= -.24825746E+02 E0= -.24745885E+02  EK=  .51640E+01 SP=  .00E+00 SK=  .00E+00 mag=      1.000
       N       E                     dE             d eps       ncg     rms          rms(c)                                      
DAV:   1     -.248138095281E+02     .11937E-01    -.12595E+00 12160    .821E+00     .883E-03                                     
RMM:   2     -.248250966448E+02    -.11287E-01    -.45004E-02 11277    .152E-01     .595E-03                                     
RMM:   3     -.248257168892E+02    -.62024E-03    -.72054E-04  9744    .207E-02     .337E-03                                     
RMM:   4     -.248257507174E+02    -.33828E-04    -.69533E-05  5143    .759E-03     .221E-03                                     
RMM:   5     -.248257677491E+02    -.17032E-04    -.72388E-06  7093    .485E-03                                                  
   17 T=  3073. E= -.19661662E+02 F= -.24825768E+02 E0= -.24745907E+02  EK=  .51641E+01 SP=  .00E+00 SK=  .00E+00 mag=      1.000
       N       E                     dE             d eps       ncg     rms          rms(c)                                      
DAV:   1     -.248182007547E+02     .75500E-02    -.99731E-01 12040    .847E+00     .830E-03                                     
RMM:   2     -.248248956727E+02    -.66949E-02    -.16331E-03 11173    .393E-02     .467E-03                                     
RMM:   3     -.248255962521E+02    -.70058E-03    -.30622E-05  8365    .818E-03     .274E-03                                     
RMM:   4     -.248258411705E+02    -.24492E-03    -.71668E-06  8605    .606E-03     .701E-04                                     
RMM:   5     -.248259794770E+02    -.13831E-03    -.16960E-06  3755    .305E-03     .473E-04                                     
RMM:   6     -.248260641230E+02    -.84646E-04    -.45124E-06  4871    .401E-03     .260E-04                                     
RMM:   7     -.248260827493E+02    -.18626E-04    -.17309E-06  3832    .327E-03                                                  
   18 T=  3073. E= -.19661843E+02 F= -.24826083E+02 E0= -.24746223E+02  EK=  .51642E+01 SP=  .00E+00 SK=  .00E+00 mag=      1.000
       N       E                     dE             d eps       ncg     rms          rms(c)                                      
DAV:   1     -.248175281444E+02     .85360E-02    -.19276E+00 12616    .909E+00     .818E-03                                     
RMM:   2     -.248254876889E+02    -.79595E-02    -.15046E-02 11478    .643E-02     .317E-03                                     
RMM:   3     -.248260813287E+02    -.59364E-03    -.42461E-04  7413    .115E-02     .254E-03                                     
RMM:   4     -.248261658822E+02    -.84554E-04    -.77559E-05  6081    .625E-03     .144E-03                                     
RMM:   5     -.248261440456E+02     .21837E-04    -.72401E-06  6254    .443E-03                                                  
   19 T=  3073. E= -.19661769E+02 F= -.24826144E+02 E0= -.24746285E+02  EK=  .51644E+01 SP=  .00E+00 SK=  .00E+00 mag=      1.000
       N       E                     dE             d eps       ncg     rms          rms(c)                                      
DAV:   1     -.248181230317E+02     .80429E-02    -.21593E+00 12120    .885E+00     .811E-03                                     
RMM:   2     -.248253751692E+02    -.72521E-02    -.61596E-03 11274    .600E-02     .201E-03                                     
RMM:   3     -.248259203261E+02    -.54516E-03    -.89843E-05  7748    .979E-03     .126E-03                                     
RMM:   4     -.248261598488E+02    -.23952E-03    -.96455E-06  5077    .490E-03     .891E-04                                     
RMM:   5     -.248262848709E+02    -.12502E-03    -.19357E-06  4940    .408E-03     .460E-04                                     
RMM:   6     -.248263387297E+02    -.53859E-04    -.17735E-06  4522    .371E-03     .142E-04                                     
RMM:   7     -.248263536438E+02    -.14914E-04    -.15237E-06  3793    .340E-03                                                  
   20 T=  3073. E= -.19661842E+02 F= -.24826354E+02 E0= -.24746495E+02  EK=  .51645E+01 SP=  .00E+00 SK=  .00E+00 mag=      1.000
       N       E                     dE             d eps       ncg     rms          rms(c)                                      
DAV:   1     -.248167678392E+02     .95709E-02    -.22737E+00 12304    .917E+00     .808E-03                                     
RMM:   2     -.248255353940E+02    -.87676E-02    -.22256E-02 11666    .106E-01     .228E-03                                     
RMM:   3     -.248261127822E+02    -.57739E-03    -.52114E-04  8034    .157E-02     .167E-03                                     
RMM:   4     -.248263284955E+02    -.21571E-03    -.38880E-05  5875    .679E-03     .103E-03                                     
RMM:   5     -.248264419472E+02    -.11345E-03    -.53888E-06  5649    .465E-03     .318E-04                                     
RMM:   6     -.248264714860E+02    -.29539E-04    -.69774E-07  3330    .307E-03                                                  
   21 T=  3073. E= -.19661821E+02 F= -.24826471E+02 E0= -.24746613E+02  EK=  .51647E+01 SP=  .00E+00 SK=  .00E+00 mag=      1.000
       N       E                     dE             d eps       ncg     rms          rms(c)                                      
DAV:   1     -.248183420032E+02     .80999E-02    -.13563E+00 12960    .855E+00     .810E-03                                     
RMM:   2     -.248257986840E+02    -.74567E-02    -.83008E-03 11272    .776E-02     .205E-03                                     
RMM:   3     -.248264499695E+02    -.65129E-03    -.96640E-05  7814    .109E-02     .971E-04                                     
RMM:   4     -.248265459728E+02    -.96003E-04    -.71730E-06  4861    .490E-03     .523E-04                                     
RMM:   5     -.248265807869E+02    -.34814E-04    -.14545E-06  4267    .348E-03     .230E-04                                     
RMM:   6     -.248266227605E+02    -.41974E-04    -.34934E-06  4537    .407E-03     .112E-04                                     
RMM:   7     -.248266260804E+02    -.33199E-05    -.16741E-06  3865    .359E-03                                                  
   22 T=  3074. E= -.19661838E+02 F= -.24826626E+02 E0= -.24746769E+02  EK=  .51648E+01 SP=  .00E+00 SK=  .00E+00 mag=      1.000
       N       E                     dE             d eps       ncg     rms          rms(c)                                      
DAV:   1     -.248191276402E+02     .74951E-02    -.10050E+00 12472    .856E+00     .789E-03                                     
RMM:   2     -.248260175738E+02    -.68899E-02    -.22322E-03 11352    .480E-02     .222E-03                                     
RMM:   3     -.248265558893E+02    -.53832E-03    -.41481E-05  8096    .998E-03     .102E-03                                     
RMM:   4     -.248265819177E+02    -.26028E-04    -.38155E-06  5273    .495E-03                                                  
   23 T=  3074. E= -.19661654E+02 F= -.24826582E+02 E0= -.24746725E+02  EK=  .51649E+01 SP=  .00E+00 SK=  .00E+00 mag=      1.000
       N       E                     dE             d eps       ncg     rms          rms(c)                                      
DAV:   1     -.248190665511E+02     .74893E-02    -.17213E+00 12144    .870E+00     .816E-03                                     
RMM:   2     -.248256875939E+02    -.66210E-02    -.14040E-03 11478    .481E-02     .262E-03                                     
RMM:   3     -.248263709219E+02    -.68333E-03    -.33597E-05  8393    .911E-03     .940E-04                                     
RMM:   4     -.248267158519E+02    -.34493E-03    -.52917E-06  6260    .533E-03     .586E-04                                     
RMM:   5     -.248268727501E+02    -.15690E-03    -.68691E-06  5335    .519E-03     .206E-04                                     
RMM:   6     -.248268935475E+02    -.20797E-04    -.12753E-06  3456    .309E-03                                                  
   24 T=  3074. E= -.19661824E+02 F= -.24826894E+02 E0= -.24747037E+02  EK=  .51651E+01 SP=  .00E+00 SK=  .00E+00 mag=      1.000
       N       E                     dE             d eps       ncg     rms          rms(c)                                      
DAV:   1     -.248178633665E+02     .90094E-02    -.12056E+00 12816    .868E+00     .796E-03                                     
RMM:   2     -.248262788872E+02    -.84155E-02    -.19591E-02 11644    .110E-01     .164E-03                                     
RMM:   3     -.248267436199E+02    -.46473E-03    -.42177E-04  7878    .158E-02     .937E-04                                     
RMM:   4     -.248269217835E+02    -.17816E-03    -.32396E-05  5474    .674E-03     .553E-04                                     
RMM:   5     -.248270226302E+02    -.10085E-03    -.59994E-06  5344    .497E-03     .213E-04                                     
RMM:   6     -.248270444011E+02    -.21771E-04    -.27297E-06  3971    .376E-03                                                  
   25 T=  3074. E= -.19661831E+02 F= -.24827044E+02 E0= -.24747189E+02  EK=  .51652E+01 SP=  .00E+00 SK=  .00E+00 mag=      1.000
       N       E                     dE             d eps       ncg     rms          rms(c)                                      
DAV:   1     -.248189105727E+02     .81121E-02    -.92002E-01 12776    .758E+00     .807E-03                                     
RMM:   2     -.248264728472E+02    -.75623E-02    -.77483E-03 10938    .688E-02     .164E-03                                     
RMM:   3     -.248269885916E+02    -.51574E-03    -.14228E-04  7502    .118E-02     .793E-04                                     
RMM:   4     -.248270974721E+02    -.10888E-03    -.11931E-05  4653    .532E-03     .444E-04                                     
RMM:   5     -.248271707125E+02    -.73240E-04    -.48478E-06  5222    .512E-03     .153E-04                                     
RMM:   6     -.248271844341E+02    -.13722E-04    -.15514E-06  3766    .358E-03                                                  
   26 T=  3074. E= -.19661828E+02 F= -.24827184E+02 E0= -.24747330E+02  EK=  .51654E+01 SP=  .00E+00 SK=  .00E+00 mag=      1.000
       N       E                     dE             d eps       ncg     rms          rms(c)                                      
DAV:   1     -.248192631044E+02     .79076E-02    -.13035E+00 12144    .753E+00     .810E-03                                     
RMM:   2     -.248265888676E+02    -.73258E-02    -.62510E-03 10881    .578E-02     .182E-03                                     
RMM:   3     -.248271016790E+02    -.51281E-03    -.11139E-04  7580    .114E-02     .939E-04                                     
RMM:   4     -.248272093078E+02    -.10763E-03    -.83927E-06  4586    .492E-03     .519E-04                                     
RMM:   5     -.248272924489E+02    -.83141E-04    -.28573E-06  4782    .434E-03     .248E-04                                     
RMM:   6     -.248273234998E+02    -.31051E-04    -.51982E-06  4452    .433E-03     .115E-04                                     
RMM:   7     -.248273286476E+02    -.51478E-05    -.22349E-06  3874    .382E-03                                                  
   27 T=  3074. E= -.19661828E+02 F= -.24827329E+02 E0= -.24747475E+02  EK=  .51655E+01 SP=  .00E+00 SK=  .00E+00 mag=      1.000
       N       E                     dE             d eps       ncg     rms          rms(c)                                      
DAV:   1     -.248199963150E+02     .73272E-02    -.10820E+00 11976    .837E+00     .790E-03                                     
RMM:   2     -.248267516750E+02    -.67554E-02    -.70486E-04 11179    .333E-02     .204E-03                                     
RMM:   3     -.248273004312E+02    -.54876E-03    -.22027E-05  7846    .906E-03     .986E-04                                     
RMM:   4     -.248273839542E+02    -.83523E-04    -.39822E-06  5027    .479E-03     .569E-04                                     
RMM:   5     -.248274205717E+02    -.36618E-04    -.64892E-07  3557    .323E-03     .313E-04                                     
RMM:   6     -.248274650254E+02    -.44454E-04    -.51682E-06  4732    .470E-03     .128E-04                                     
RMM:   7     -.248274743533E+02    -.93279E-05    -.63113E-06  4550    .453E-03                                                  
   28 T=  3074. E= -.19661829E+02 F= -.24827474E+02 E0= -.24747621E+02  EK=  .51656E+01 SP=  .00E+00 SK=  .00E+00 mag=      1.000
       N       E                     dE             d eps       ncg     rms          rms(c)                                      
DAV:   1     -.248201207015E+02     .73443E-02    -.23603E+00 12376    .910E+00     .784E-03                                     
RMM:   2     -.248269649994E+02    -.68443E-02    -.12781E-03 11324    .414E-02     .244E-03                                     
RMM:   3     -.248274234931E+02    -.45849E-03    -.27188E-05  7953    .970E-03     .161E-03                                     
RMM:   4     -.248273851925E+02     .38301E-04    -.56530E-06  5873    .549E-03     .596E-04                                     
RMM:   5     -.248275009376E+02    -.11575E-03    -.15734E-06  4125    .352E-03     .283E-04                                     
RMM:   6     -.248275854731E+02    -.84535E-04    -.45936E-06  4873    .497E-03     .202E-04                                     
RMM:   7     -.248276056793E+02    -.20206E-04    -.10727E-06  3475    .339E-03                                                  
   29 T=  3074. E= -.19661816E+02 F= -.24827606E+02 E0= -.24747753E+02  EK=  .51658E+01 SP=  .00E+00 SK=  .00E+00 mag=      1.000
       N       E                     dE             d eps       ncg     rms          rms(c)                                      
DAV:   1     -.248158301941E+02     .11755E-01    -.23644E+00 12952    .921E+00     .829E-03                                     
RMM:   2     -.248269425934E+02    -.11112E-01    -.43421E-02 11480    .137E-01     .351E-03                                     
RMM:   3     -.248275106970E+02    -.56810E-03    -.15558E-03  9033    .216E-02     .162E-03                                     
RMM:   4     -.248275992576E+02    -.88561E-04    -.72350E-05  5681    .746E-03     .121E-03                                     
RMM:   5     -.248277203081E+02    -.12105E-03    -.17497E-05  5939    .577E-03     .709E-04                                     
RMM:   6     -.248277553425E+02    -.35034E-04    -.48673E-06  5026    .451E-03     .218E-04                                     
RMM:   7     -.248277606435E+02    -.53011E-05    -.60429E-06  4818    .487E-03                                                  
   30 T=  3074. E= -.19661826E+02 F= -.24827761E+02 E0= -.24747908E+02  EK=  .51659E+01 SP=  .00E+00 SK=  .00E+00 mag=      1.000
       N       E                     dE             d eps       ncg     rms          rms(c)                                      
DAV:   1     -.248194835654E+02     .82718E-02    -.13364E+00 13576    .857E+00     .799E-03                                     
RMM:   2     -.248268169782E+02    -.73334E-02    -.10128E-02 11729    .873E-02     .286E-03                                     
RMM:   3     -.248275208219E+02    -.70384E-03    -.13662E-04  8655    .139E-02     .124E-03                                     
RMM:   4     -.248277371704E+02    -.21635E-03    -.94137E-06  5141    .537E-03     .874E-04                                     
RMM:   5     -.248278551534E+02    -.11798E-03    -.29614E-06  5220    .435E-03     .272E-04                                     
RMM:   6     -.248278895490E+02    -.34396E-04    -.31485E-06  4614    .428E-03     .111E-04                                     
RMM:   7     -.248279001474E+02    -.10598E-04    -.76974E-06  5021    .520E-03                                                  
   31 T=  3074. E= -.19661821E+02 F= -.24827900E+02 E0= -.24748049E+02  EK=  .51661E+01 SP=  .00E+00 SK=  .00E+00 mag=      1.000
       N       E                     dE             d eps       ncg     rms          rms(c)                                      
DAV:   1     -.248206716457E+02     .72179E-02    -.15713E+00 12432    .789E+00     .785E-03                                     
RMM:   2     -.248273194733E+02    -.66478E-02    -.71164E-04 11369    .401E-02     .273E-03                                     
RMM:   3     -.248276701660E+02    -.35069E-03    -.16577E-05  8003    .947E-03     .178E-03                                     
RMM:   4     -.248278218559E+02    -.15169E-03    -.44522E-06  4987    .462E-03     .117E-03                                     
RMM:   5     -.248279548091E+02    -.13295E-03    -.54166E-06  6449    .560E-03     .544E-04                                     
RMM:   6     -.248279754640E+02    -.20655E-04    -.20673E-06  3487    .351E-03                                                  
   32 T=  3074. E= -.19661751E+02 F= -.24827975E+02 E0= -.24748125E+02  EK=  .51662E+01 SP=  .00E+00 SK=  .00E+00 mag=      1.000
       N       E                     dE             d eps       ncg     rms          rms(c)                                      
DAV:   1     -.248204705133E+02     .74843E-02    -.20547E+00 12864    .862E+00     .792E-03                                     
RMM:   2     -.248273374423E+02    -.68669E-02    -.19075E-03 11722    .534E-02     .416E-03                                     
RMM:   3     -.248277518077E+02    -.41437E-03    -.26991E-05  9583    .981E-03     .910E-04                                     
RMM:   4     -.248280259527E+02    -.27414E-03    -.71308E-06  5461    .522E-03     .825E-04                                     
RMM:   5     -.248281590069E+02    -.13305E-03    -.19415E-05  5807    .698E-03     .669E-04                                     
RMM:   6     -.248281833603E+02    -.24353E-04    -.22305E-05  5579    .646E-03                                                  
   33 T=  3075. E= -.19661812E+02 F= -.24828183E+02 E0= -.24748333E+02  EK=  .51664E+01 SP=  .00E+00 SK=  .00E+00 mag=       .999
       N       E                     dE             d eps       ncg     rms          rms(c)                                      
DAV:   1     -.248206451082E+02     .75139E-02    -.12944E+00 13840    .854E+00     .790E-03                                     
RMM:   2     -.248277929291E+02    -.71478E-02    -.48295E-03 11949    .633E-02     .181E-03                                     
RMM:   3     -.248282452523E+02    -.45232E-03    -.10685E-04  7973    .118E-02     .971E-04                                     
RMM:   4     -.248283196979E+02    -.74446E-04    -.86440E-06  4685    .486E-03     .536E-04                                     
RMM:   5     -.248283301618E+02    -.10464E-04    -.76953E-06  4943    .491E-03                                                  
   34 T=  3075. E= -.19661813E+02 F= -.24828330E+02 E0= -.24748481E+02  EK=  .51665E+01 SP=  .00E+00 SK=  .00E+00 mag=       .999
       N       E                     dE             d eps       ncg     rms          rms(c)                                      
DAV:   1     -.248208485153E+02     .74712E-02    -.13165E+00 12496    .927E+00     .795E-03                                     
RMM:   2     -.248279186039E+02    -.70701E-02    -.35148E-03 11635    .564E-02     .245E-03                                     
RMM:   3     -.248283629952E+02    -.44439E-03    -.55529E-05  8124    .106E-02     .118E-03                                     
RMM:   4     -.248283890835E+02    -.26088E-04    -.46555E-06  5084    .488E-03                                                  
   35 T=  3075. E= -.19661727E+02 F= -.24828389E+02 E0= -.24748541E+02  EK=  .51667E+01 SP=  .00E+00 SK=  .00E+00 mag=       .999
       N       E                     dE             d eps       ncg     rms          rms(c)                                      
DAV:   1     -.248204069109E+02     .79561E-02    -.11738E+00 12336    .935E+00     .801E-03                                     
RMM:   2     -.248279689457E+02    -.75620E-02    -.79465E-03 11675    .703E-02     .210E-03                                     
RMM:   3     -.248283832462E+02    -.41430E-03    -.18477E-04  8188    .119E-02     .135E-03                                     
RMM:   4     -.248284227806E+02    -.39534E-04    -.11219E-05  5944    .594E-03     .548E-04                                     
RMM:   5     -.248285865675E+02    -.16379E-03    -.30136E-05  5952    .790E-03     .330E-04                                     
RMM:   6     -.248286130900E+02    -.26522E-04    -.13949E-05  5277    .634E-03                                                  
   36 T=  3075. E= -.19661804E+02 F= -.24828613E+02 E0= -.24748765E+02  EK=  .51668E+01 SP=  .00E+00 SK=  .00E+00 mag=       .999
       N       E                     dE             d eps       ncg     rms          rms(c)                                      
DAV:   1     -.248209570132E+02     .76296E-02    -.18298E+00 14016    .817E+00     .793E-03                                     
RMM:   2     -.248281093327E+02    -.71523E-02    -.57092E-03 12105    .764E-02     .194E-03                                     
RMM:   3     -.248286261964E+02    -.51686E-03    -.10812E-04  8567    .147E-02     .862E-04                                     
RMM:   4     -.248287119094E+02    -.85713E-04    -.26278E-05  6671    .794E-03     .515E-04                                     
RMM:   5     -.248287640633E+02    -.52154E-04    -.24729E-05  5660    .748E-03     .208E-04                                     
RMM:   6     -.248287713587E+02    -.72954E-05    -.15607E-06  3460    .327E-03                                                  
   37 T=  3075. E= -.19661815E+02 F= -.24828771E+02 E0= -.24748924E+02  EK=  .51670E+01 SP=  .00E+00 SK=  .00E+00 mag=       .999
       N       E                     dE             d eps       ncg     rms          rms(c)                                      
DAV:   1     -.248216588982E+02     .71052E-02    -.17625E+00 12912    .892E+00     .787E-03                                     
RMM:   2     -.248283419503E+02    -.66831E-02    -.65417E-04 11813    .435E-02     .162E-03                                     
RMM:   3     -.248287835710E+02    -.44162E-03    -.26897E-05  8293    .113E-02     .882E-04                                     
RMM:   4     -.248288233227E+02    -.39752E-04    -.32625E-06  5560    .519E-03     .430E-04                                     
RMM:   5     -.248288829323E+02    -.59610E-04    -.78042E-06  5126    .570E-03     .182E-04                                     
RMM:   6     -.248289092930E+02    -.26361E-04    -.95912E-06  5371    .604E-03                                                  
   38 T=  3075. E= -.19661808E+02 F= -.24828909E+02 E0= -.24749063E+02  EK=  .51671E+01 SP=  .00E+00 SK=  .00E+00 mag=       .999
       N       E                     dE             d eps       ncg     rms          rms(c)                                      
DAV:   1     -.248206070831E+02     .82758E-02    -.14226E+00 13168    .850E+00     .800E-03                                     
RMM:   2     -.248283442127E+02    -.77371E-02    -.10978E-02 11692    .922E-02     .203E-03                                     
RMM:   3     -.248288441271E+02    -.49991E-03    -.15045E-04  8458    .156E-02     .952E-04                                     
RMM:   4     -.248289044720E+02    -.60345E-04    -.17833E-05  6081    .789E-03     .670E-04                                     
RMM:   5     -.248289619315E+02    -.57459E-04    -.70005E-06  5018    .493E-03     .401E-04                                     
RMM:   6     -.248290321985E+02    -.70267E-04    -.21931E-05  5571    .725E-03     .170E-04                                     
RMM:   7     -.248290496805E+02    -.17482E-04    -.15771E-05  4923    .641E-03                                                  
   39 T=  3075. E= -.19661803E+02 F= -.24829050E+02 E0= -.24749204E+02  EK=  .51672E+01 SP=  .00E+00 SK=  .00E+00 mag=       .999
       N       E                     dE             d eps       ncg     rms          rms(c)                                      
DAV:   1     -.248219657223E+02     .70665E-02    -.10073E+00 12888    .814E+00     .786E-03                                     
RMM:   2     -.248286160360E+02    -.66503E-02    -.64714E-04 11960    .397E-02     .164E-03                                     
RMM:   3     -.248290912162E+02    -.47518E-03    -.30232E-05  8076    .899E-03     .103E-03                                     
RMM:   4     -.248291818245E+02    -.90608E-04    -.17504E-05  5510    .606E-03     .531E-04                                     
RMM:   5     -.248291697143E+02     .12110E-04    -.10787E-05  5304    .601E-03                                                  
   40 T=  3075. E= -.19661778E+02 F= -.24829170E+02 E0= -.24749325E+02  EK=  .51674E+01 SP=  .00E+00 SK=  .00E+00 mag=       .999
       N       E                     dE             d eps       ncg     rms          rms(c)                                      
DAV:   1     -.248213216173E+02     .78602E-02    -.25193E+00 13576    .894E+00     .791E-03                                     
RMM:   2     -.248286630548E+02    -.73414E-02    -.68555E-03 12145    .787E-02     .168E-03                                     
RMM:   3     -.248292163542E+02    -.55330E-03    -.17746E-04  8843    .149E-02     .833E-04                                     
RMM:   4     -.248292348437E+02    -.18489E-04    -.23104E-05  6179    .769E-03                                                  
   41 T=  3075. E= -.19661700E+02 F= -.24829235E+02 E0= -.24749391E+02  EK=  .51675E+01 SP=  .00E+00 SK=  .00E+00 mag=       .999
       N       E                     dE             d eps       ncg     rms          rms(c)                                      
DAV:   1     -.248215372525E+02     .76791E-02    -.68181E-01 13232    .781E+00     .800E-03                                     
RMM:   2     -.248287425669E+02    -.72053E-02    -.72744E-03 11691    .837E-02     .226E-03                                     
RMM:   3     -.248291709486E+02    -.42838E-03    -.13649E-04  8512    .144E-02     .100E-03                                     
RMM:   4     -.248293307405E+02    -.15979E-03    -.43055E-05  6615    .906E-03     .513E-04                                     
RMM:   5     -.248294586306E+02    -.12789E-03    -.71446E-05  6726    .109E-02     .208E-04                                     
RMM:   6     -.248294736618E+02    -.15031E-04    -.11488E-05  4932    .603E-03                                                  
   42 T=  3075. E= -.19661795E+02 F= -.24829474E+02 E0= -.24749631E+02  EK=  .51677E+01 SP=  .00E+00 SK=  .00E+00 mag=       .998
       N       E                     dE             d eps       ncg     rms          rms(c)                                      
DAV:   1     -.248202729227E+02     .91857E-02    -.19566E+00 13760    .768E+00     .816E-03                                     
RMM:   2     -.248291122327E+02    -.88393E-02    -.23217E-02 12163    .106E-01     .170E-03                                     
RMM:   3     -.248295716055E+02    -.45937E-03    -.41850E-04  8253    .167E-02     .869E-04                                     
RMM:   4     -.248295959901E+02    -.24385E-04    -.34802E-05  5153    .638E-03                                                  
   43 T=  3075. E= -.19661774E+02 F= -.24829596E+02 E0= -.24749753E+02  EK=  .51678E+01 SP=  .00E+00 SK=  .00E+00 mag=       .998
       N       E                     dE             d eps       ncg     rms          rms(c)                                      
DAV:   1     -.248227226376E+02     .68490E-02    -.69294E-01 13656    .883E+00     .808E-03                                     
RMM:   2     -.248294237804E+02    -.67011E-02    -.25461E-03 12112    .638E-02     .209E-03                                     
RMM:   3     -.248296689604E+02    -.24518E-03    -.57252E-05  8946    .132E-02     .103E-03                                     
RMM:   4     -.248296630751E+02     .58853E-05    -.18325E-05  6079    .833E-03                                                  
   44 T=  3075. E= -.19661700E+02 F= -.24829663E+02 E0= -.24749822E+02  EK=  .51680E+01 SP=  .00E+00 SK=  .00E+00 mag=       .998
       N       E                     dE             d eps       ncg     rms          rms(c)                                      
DAV:   1     -.248210290369E+02     .86399E-02    -.19047E+00 13120    .822E+00     .818E-03                                     
RMM:   2     -.248287415240E+02    -.77125E-02    -.99439E-03 11810    .794E-02     .179E-03                                     
RMM:   3     -.248293657407E+02    -.62422E-03    -.12066E-04  8235    .133E-02     .116E-03                                     
RMM:   4     -.248295970697E+02    -.23133E-03    -.32327E-05  6398    .826E-03     .751E-04                                     
RMM:   5     -.248297833030E+02    -.18623E-03    -.38495E-05  6296    .917E-03     .386E-04                                     
RMM:   6     -.248298557760E+02    -.72473E-04    -.43506E-05  5798    .903E-03     .233E-04                                     
RMM:   7     -.248298830378E+02    -.27262E-04    -.33702E-05  5634    .815E-03                                                  
   45 T=  3076. E= -.19661777E+02 F= -.24829883E+02 E0= -.24750042E+02  EK=  .51681E+01 SP=  .00E+00 SK=  .00E+00 mag=       .998
       N       E                     dE             d eps       ncg     rms          rms(c)                                      
DAV:   1     -.248229510018E+02     .69048E-02    -.20051E+00 13864    .929E+00     .785E-03                                     
RMM:   2     -.248294641552E+02    -.65132E-02    -.39663E-03 12490    .615E-02     .177E-03                                     
RMM:   3     -.248299480367E+02    -.48388E-03    -.17446E-04  8600    .153E-02     .929E-04                                     
RMM:   4     -.248300123076E+02    -.64271E-04    -.16541E-05  5615    .552E-03     .494E-04                                     
RMM:   5     -.248300402794E+02    -.27972E-04    -.94255E-06  4918    .565E-03                                                  
   46 T=  3076. E= -.19661792E+02 F= -.24830040E+02 E0= -.24750200E+02  EK=  .51682E+01 SP=  .00E+00 SK=  .00E+00 mag=       .998
       N       E                     dE             d eps       ncg     rms          rms(c)                                      
DAV:   1     -.248174421861E+02     .12570E-01    -.16177E+00 14040    .877E+00     .882E-03                                     
RMM:   2     -.248295849392E+02    -.12143E-01    -.58233E-02 12644    .155E-01     .236E-03                                     
RMM:   3     -.248301157712E+02    -.53083E-03    -.28602E-03  8835    .245E-02     .154E-03                                     
RMM:   4     -.248301541835E+02    -.38412E-04    -.13359E-04  4959    .767E-03     .105E-03                                     
RMM:   5     -.248301778625E+02    -.23679E-04    -.14140E-05  4294    .414E-03                                                  
   47 T=  3076. E= -.19661791E+02 F= -.24830178E+02 E0= -.24750338E+02  EK=  .51684E+01 SP=  .00E+00 SK=  .00E+00 mag=       .997
       N       E                     dE             d eps       ncg     rms          rms(c)                                      
DAV:   1     -.248233449232E+02     .68093E-02    -.20550E+00 14008    .765E+00     .799E-03                                     
RMM:   2     -.248294681724E+02    -.61232E-02    -.14660E-03 12199    .537E-02     .259E-03                                     
RMM:   3     -.248299636262E+02    -.49545E-03    -.48574E-05  8629    .114E-02     .111E-03                                     
RMM:   4     -.248302145997E+02    -.25097E-03    -.44092E-05  6560    .107E-02     .505E-04                                     
RMM:   5     -.248302938783E+02    -.79279E-04    -.89886E-05  6592    .127E-02     .254E-04                                     
RMM:   6     -.248303176751E+02    -.23797E-04    -.18555E-05  5282    .655E-03                                                  
   48 T=  3076. E= -.19661792E+02 F= -.24830318E+02 E0= -.24750479E+02  EK=  .51685E+01 SP=  .00E+00 SK=  .00E+00 mag=       .997
       N       E                     dE             d eps       ncg     rms          rms(c)                                      
DAV:   1     -.248054359422E+02     .24858E-01    -.14961E+00 13512    .838E+00     .107E-02                                     
RMM:   2     -.248307582301E+02    -.25322E-01    -.19205E-01 12200    .187E-01     .384E-03                                     
RMM:   3     -.248301511196E+02     .60711E-03    -.32531E-03  9950    .293E-02     .270E-03                                     
RMM:   4     -.248303858591E+02    -.23474E-03    -.54932E-04  7301    .194E-02     .204E-03                                     
RMM:   5     -.248304103910E+02    -.24532E-04    -.24956E-05  5551    .728E-03                                                  
   49 T=  3076. E= -.19661744E+02 F= -.24830410E+02 E0= -.24750573E+02  EK=  .51687E+01 SP=  .00E+00 SK=  .00E+00 mag=       .997
       N       E                     dE             d eps       ncg     rms          rms(c)                                      
DAV:   1     -.248156801071E+02     .14706E-01    -.24663E+00 14144    .852E+00     .869E-03                                     
RMM:   2     -.248298784566E+02    -.14198E-01    -.76552E-02 12317    .103E-01     .329E-03                                     
RMM:   3     -.248301075637E+02    -.22911E-03    -.33821E-03  8686    .225E-02     .187E-03                                     
RMM:   4     -.248303052279E+02    -.19766E-03    -.11458E-04  6104    .730E-03     .116E-03                                     
RMM:   5     -.248305677662E+02    -.26254E-03    -.22971E-04  7408    .182E-02     .584E-04                                     
RMM:   6     -.248305928882E+02    -.25122E-04    -.41269E-05  5635    .789E-03                                                  
   50 T=  3076. E= -.19661787E+02 F= -.24830593E+02 E0= -.24750755E+02  EK=  .51688E+01 SP=  .00E+00 SK=  .00E+00 mag=       .997
       N       E                     dE             d eps       ncg     rms          rms(c)                                      
DAV:   1     -.248245936695E+02     .59741E-02    -.19612E+00 14384    .832E+00     .799E-03                                     
RMM:   2     -.248300843840E+02    -.54907E-02    -.17782E-03 12381    .550E-02     .275E-03                                     
RMM:   3     -.248303837766E+02    -.29939E-03    -.12060E-04  8881    .178E-02     .267E-03                                     
RMM:   4     -.248307126426E+02    -.32887E-03    -.53240E-04  8266    .241E-02     .163E-03                                     
RMM:   5     -.248307223304E+02    -.96879E-05    -.11963E-05  5689    .547E-03                                                  
   51 T=  3076. E= -.19661776E+02 F= -.24830722E+02 E0= -.24750885E+02  EK=  .51689E+01 SP=  .00E+00 SK=  .00E+00 mag=       .996
       N       E                     dE             d eps       ncg     rms          rms(c)                                      
DAV:   1     -.248228456173E+02     .78670E-02    -.26718E+00 14176    .794E+00     .828E-03                                     
RMM:   2     -.248304170717E+02    -.75715E-02    -.12738E-02 12596    .984E-02     .242E-03                                     
RMM:   3     -.248306544069E+02    -.23734E-03    -.16158E-04  8912    .181E-02     .142E-03                                     
RMM:   4     -.248307061626E+02    -.51756E-04    -.15155E-05  5792    .594E-03     .102E-03                                     
RMM:   5     -.248308370863E+02    -.13092E-03    -.15783E-04  6926    .154E-02     .459E-04                                     
RMM:   6     -.248308597130E+02    -.22627E-04    -.19933E-05  5194    .585E-03                                                  
   52 T=  3076. E= -.19661773E+02 F= -.24830860E+02 E0= -.24751023E+02  EK=  .51691E+01 SP=  .00E+00 SK=  .00E+00 mag=       .996
       N       E                     dE             d eps       ncg     rms          rms(c)                                      
DAV:   1     -.248240935552E+02     .67435E-02    -.17149E+00 14288    .770E+00     .798E-03                                     
RMM:   2     -.248305650653E+02    -.64715E-02    -.50363E-03 12768    .746E-02     .291E-03                                     
RMM:   3     -.248308014278E+02    -.23636E-03    -.80078E-05  8760    .105E-02     .116E-03                                     
RMM:   4     -.248309183785E+02    -.11695E-03    -.11244E-05  5579    .578E-03     .797E-04                                     
RMM:   5     -.248309978576E+02    -.79479E-04    -.38460E-05  6027    .924E-03     .370E-04                                     
RMM:   6     -.248310055554E+02    -.76978E-05    -.32435E-06  3681    .340E-03                                                  
   53 T=  3076. E= -.19661781E+02 F= -.24831006E+02 E0= -.24751170E+02  EK=  .51692E+01 SP=  .00E+00 SK=  .00E+00 mag=       .996
       N       E                     dE             d eps       ncg     rms          rms(c)                                      
DAV:   1     -.248249578108E+02     .60400E-02    -.14434E+00 14384    .875E+00     .804E-03                                     
RMM:   2     -.248309895294E+02    -.60317E-02    -.33586E-03 12840    .729E-02     .241E-03                                     
RMM:   3     -.248311234970E+02    -.13397E-03    -.45180E-05  9091    .108E-02     .107E-03                                     
RMM:   4     -.248311312667E+02    -.77697E-05    -.46759E-06  4633    .431E-03                                                  
   54 T=  3076. E= -.19661771E+02 F= -.24831131E+02 E0= -.24751296E+02  EK=  .51694E+01 SP=  .00E+00 SK=  .00E+00 mag=       .995
       N       E                     dE             d eps       ncg     rms          rms(c)                                      
DAV:   1     -.248228808851E+02     .82426E-02    -.19532E+00 14760    .943E+00     .857E-03                                     
RMM:   2     -.248310622564E+02    -.81814E-02    -.29258E-02 12811    .146E-01     .256E-03                                     
RMM:   3     -.248312179016E+02    -.15565E-03    -.65267E-04  8876    .190E-02     .151E-03                                     
RMM:   4     -.248312515290E+02    -.33627E-04    -.72058E-05  5150    .647E-03     .963E-04                                     
RMM:   5     -.248312735266E+02    -.21998E-04    -.59277E-06  5159    .428E-03                                                  
   55 T=  3076. E= -.19661776E+02 F= -.24831274E+02 E0= -.24751439E+02  EK=  .51695E+01 SP=  .00E+00 SK=  .00E+00 mag=       .995
       N       E                     dE             d eps       ncg     rms          rms(c)                                      
DAV:   1     -.248236988436E+02     .75527E-02    -.21556E+00 14936    .909E+00     .819E-03                                     
RMM:   2     -.248308341437E+02    -.71353E-02    -.14884E-02 12867    .122E-01     .232E-03                                     
RMM:   3     -.248313053131E+02    -.47117E-03    -.37263E-04  9444    .249E-02     .129E-03                                     
RMM:   4     -.248313809519E+02    -.75639E-04    -.67940E-05  6820    .109E-02     .727E-04                                     
RMM:   5     -.248314035259E+02    -.22574E-04    -.50480E-06  4860    .454E-03                                                  
   56 T=  3076. E= -.19661767E+02 F= -.24831404E+02 E0= -.24751570E+02  EK=  .51696E+01 SP=  .00E+00 SK=  .00E+00 mag=       .995
       N       E                     dE             d eps       ncg     rms          rms(c)                                      
DAV:   1     -.248248388203E+02     .65421E-02    -.13376E+00 15072    .873E+00     .805E-03                                     
RMM:   2     -.248309025013E+02    -.60637E-02    -.40833E-03 12868    .786E-02     .311E-03                                     
RMM:   3     -.248311702197E+02    -.26772E-03    -.10601E-04  9639    .159E-02     .152E-03                                     
RMM:   4     -.248315014172E+02    -.33120E-03    -.35541E-04  7462    .182E-02     .835E-04                                     
RMM:   5     -.248315280267E+02    -.26609E-04    -.36819E-05  5582    .644E-03                                                  
   57 T=  3077. E= -.19661752E+02 F= -.24831528E+02 E0= -.24751695E+02  EK=  .51698E+01 SP=  .00E+00 SK=  .00E+00 mag=       .994
       N       E                     dE             d eps       ncg     rms          rms(c)                                      
DAV:   1     -.248251557701E+02     .63456E-02    -.35971E+00 14840    .946E+00     .810E-03                                     
RMM:   2     -.248315285597E+02    -.63728E-02    -.64161E-03 12925    .912E-02     .248E-03                                     
RMM:   3     -.248316361788E+02    -.10762E-03    -.12272E-04  8631    .135E-02     .158E-03                                     
RMM:   4     -.248316510574E+02    -.14879E-04    -.85432E-06  5384    .524E-03                                                  
   58 T=  3077. E= -.19661732E+02 F= -.24831651E+02 E0= -.24751818E+02  EK=  .51699E+01 SP=  .00E+00 SK=  .00E+00 mag=       .994
       N       E                     dE             d eps       ncg     rms          rms(c)                                      
DAV:   1     -.248261112986E+02     .55249E-02    -.28689E+00 14808    .961E+00     .849E-03                                     
RMM:   2     -.248317046361E+02    -.55933E-02    -.63390E-03 13059    .107E-01     .291E-03                                     
RMM:   3     -.248317992442E+02    -.94608E-04    -.85941E-05  9345    .137E-02     .161E-03                                     
RMM:   4     -.248318195837E+02    -.20340E-04    -.79852E-06  6073    .566E-03                                                  
   59 T=  3077. E= -.19661755E+02 F= -.24831820E+02 E0= -.24751987E+02  EK=  .51701E+01 SP=  .00E+00 SK=  .00E+00 mag=       .993
       N       E                     dE             d eps       ncg     rms          rms(c)                                      
DAV:   1     -.248264412908E+02     .53580E-02    -.21867E+00 14608    .101E+01     .790E-03                                     
RMM:   2     -.248318325777E+02    -.53913E-02    -.29731E-03 13542    .812E-02     .395E-03                                     
RMM:   3     -.248319266638E+02    -.94086E-04    -.56039E-05  9872    .126E-02     .171E-03                                     
RMM:   4     -.248319421589E+02    -.15495E-04    -.41044E-06  5607    .486E-03                                                  
   60 T=  3077. E= -.19661730E+02 F= -.24831942E+02 E0= -.24752110E+02  EK=  .51702E+01 SP=  .00E+00 SK=  .00E+00 mag=       .993
       N       E                     dE             d eps       ncg     rms          rms(c)                                      
DAV:   1     -.248252573980E+02     .66693E-02    -.18357E+00 14840    .875E+00     .857E-03                                     
RMM:   2     -.248319080181E+02    -.66506E-02    -.20119E-02 13840    .157E-01     .509E-03                                     
RMM:   3     -.248320690392E+02    -.16102E-03    -.31469E-04 10427    .219E-02     .208E-03                                     
RMM:   4     -.248320903794E+02    -.21340E-04    -.25196E-05  6133    .706E-03                                                  
   61 T=  3077. E= -.19661729E+02 F= -.24832090E+02 E0= -.24752259E+02  EK=  .51704E+01 SP=  .00E+00 SK=  .00E+00 mag=       .992
       N       E                     dE             d eps       ncg     rms          rms(c)                                      
DAV:   1     -.248255456898E+02     .65233E-02    -.17278E+00 15016    .791E+00     .863E-03                                     
RMM:   2     -.248320428531E+02    -.64972E-02    -.15882E-02 13462    .117E-01     .235E-03                                     
RMM:   3     -.248321847167E+02    -.14186E-03    -.26661E-04  9782    .166E-02     .154E-03                                     
RMM:   4     -.248322120636E+02    -.27347E-04    -.20917E-05  5289    .516E-03                                                  
   62 T=  3077. E= -.19661696E+02 F= -.24832212E+02 E0= -.24752381E+02  EK=  .51705E+01 SP=  .00E+00 SK=  .00E+00 mag=       .992
       N       E                     dE             d eps       ncg     rms          rms(c)                                      
DAV:   1     -.248266075862E+02     .55771E-02    -.16889E+00 14792    .889E+00     .829E-03                                     
RMM:   2     -.248322052619E+02    -.55977E-02    -.49245E-03 14058    .937E-02     .647E-03                                     
RMM:   3     -.248323284688E+02    -.12321E-03    -.12257E-04 10246    .151E-02     .219E-03                                     
RMM:   4     -.248323719377E+02    -.43469E-04    -.73937E-06  5761    .519E-03     .165E-03                                     
RMM:   5     -.248324196678E+02    -.47730E-04    -.88700E-06  6632    .587E-03     .496E-04                                     
RMM:   6     -.248324224497E+02    -.27819E-05    -.84886E-07  3560    .317E-03                                                  
   63 T=  3077. E= -.19661747E+02 F= -.24832422E+02 E0= -.24752592E+02  EK=  .51707E+01 SP=  .00E+00 SK=  .00E+00 mag=       .991
       N       E                     dE             d eps       ncg     rms          rms(c)                                      
DAV:   1     -.248257559452E+02     .66637E-02    -.18515E+00 15632    .924E+00     .862E-03                                     
RMM:   2     -.248323815256E+02    -.66256E-02    -.28105E-02 13623    .164E-01     .501E-03                                     
RMM:   3     -.248325468524E+02    -.16533E-03    -.10421E-03 10221    .206E-02     .292E-03                                     
RMM:   4     -.248325726508E+02    -.25798E-04    -.43673E-05  5471    .639E-03                                                  
   64 T=  3077. E= -.19661734E+02 F= -.24832573E+02 E0= -.24752742E+02  EK=  .51708E+01 SP=  .00E+00 SK=  .00E+00 mag=       .991
       N       E                     dE             d eps       ncg     rms          rms(c)                                      
DAV:   1     -.248275445863E+02     .50023E-02    -.19461E+00 14600    .869E+00     .908E-03                                     
RMM:   2     -.248326328659E+02    -.50883E-02    -.43300E-03 13543    .962E-02     .215E-03                                     
RMM:   3     -.248326827159E+02    -.49850E-04    -.53202E-05  9485    .107E-02     .131E-03                                     
RMM:   4     -.248327206148E+02    -.37899E-04    -.63481E-06  5561    .488E-03     .707E-04                                     
RMM:   5     -.248327474865E+02    -.26872E-04    -.12038E-05  5378    .578E-03                                                  
   65 T=  3077. E= -.19661740E+02 F= -.24832747E+02 E0= -.24752918E+02  EK=  .51710E+01 SP=  .00E+00 SK=  .00E+00 mag=       .990
       N       E                     dE             d eps       ncg     rms          rms(c)                                      
DAV:   1     -.248281320768E+02     .45885E-02    -.21031E+00 15104    .977E+00     .923E-03                                     
RMM:   2     -.248327615114E+02    -.46294E-02    -.10035E-02 14087    .127E-01     .400E-03                                     
RMM:   3     -.248328837019E+02    -.12219E-03    -.19111E-04 10305    .194E-02     .154E-03                                     
RMM:   4     -.248329158705E+02    -.32169E-04    -.18125E-05  6021    .591E-03     .760E-04                                     
RMM:   5     -.248329240581E+02    -.81876E-05    -.32692E-06  4389    .396E-03                                                  
   66 T=  3077. E= -.19661739E+02 F= -.24832924E+02 E0= -.24753094E+02  EK=  .51712E+01 SP=  .00E+00 SK=  .00E+00 mag=       .989
       N       E                     dE             d eps       ncg     rms          rms(c)                                      
DAV:   1     -.248253900610E+02     .75258E-02    -.47917E+00 14408    .994E+00     .928E-03                                     
RMM:   2     -.248329108294E+02    -.75208E-02    -.40010E-02 13049    .162E-01     .286E-03                                     
RMM:   3     -.248331011754E+02    -.19035E-03    -.89793E-04  9201    .229E-02     .150E-03                                     
RMM:   4     -.248331079705E+02    -.67951E-05    -.41728E-05  5479    .674E-03                                                  
   67 T=  3077. E= -.19661734E+02 F= -.24833108E+02 E0= -.24753278E+02  EK=  .51714E+01 SP=  .00E+00 SK=  .00E+00 mag=       .989
       N       E                     dE             d eps       ncg     rms          rms(c)                                      
DAV:   1     -.248280009518E+02     .51002E-02    -.19652E+00 15416    .989E+00     .860E-03                                     
RMM:   2     -.248331985788E+02    -.51976E-02    -.18529E-02 13474    .152E-01     .333E-03                                     
RMM:   3     -.248332674113E+02    -.68833E-04    -.29670E-04  9319    .165E-02     .164E-03                                     
RMM:   4     -.248332922099E+02    -.24799E-04    -.21476E-05  5590    .627E-03                                                  
   68 T=  3078. E= -.19661718E+02 F= -.24833292E+02 E0= -.24753463E+02  EK=  .51716E+01 SP=  .00E+00 SK=  .00E+00 mag=       .988
       N       E                     dE             d eps       ncg     rms          rms(c)                                      
DAV:   1     -.248296750979E+02     .35923E-02    -.24770E+00 14744    .862E+00     .883E-03                                     
RMM:   2     -.248333980779E+02    -.37230E-02    -.37494E-03 13490    .978E-02     .390E-03                                     
RMM:   3     -.248334736332E+02    -.75555E-04    -.93348E-05  9615    .137E-02     .218E-03                                     
RMM:   4     -.248334930724E+02    -.19439E-04    -.58570E-06  5967    .494E-03                                                  
   69 T=  3078. E= -.19661708E+02 F= -.24833493E+02 E0= -.24753664E+02  EK=  .51718E+01 SP=  .00E+00 SK=  .00E+00 mag=       .987
       N       E                     dE             d eps       ncg     rms          rms(c)                                      
DAV:   1     -.248281564016E+02     .53172E-02    -.11511E+00 15048    .827E+00     .888E-03                                     
RMM:   2     -.248336135268E+02    -.54571E-02    -.20398E-02 13617    .159E-01     .394E-03                                     
RMM:   3     -.248337109692E+02    -.97442E-04    -.30130E-04  9921    .176E-02     .315E-03                                     
RMM:   4     -.248337049775E+02     .59917E-05    -.19747E-05  6317    .700E-03                                                  
   70 T=  3078. E= -.19661695E+02 F= -.24833705E+02 E0= -.24753877E+02  EK=  .51720E+01 SP=  .00E+00 SK=  .00E+00 mag=       .986
       N       E                     dE             d eps       ncg     rms          rms(c)                                      
DAV:   1     -.248308632822E+02     .28477E-02    -.20705E+00 14632    .852E+00     .943E-03                                     
RMM:   2     -.248339102062E+02    -.30469E-02    -.33943E-03 14520    .979E-02     .380E-03                                     
RMM:   3     -.248339534044E+02    -.43198E-04    -.33349E-05  8926    .943E-03     .193E-03                                     
RMM:   4     -.248339729111E+02    -.19507E-04    -.70609E-06  7027    .572E-03                                                  
   71 T=  3078. E= -.19661718E+02 F= -.24833973E+02 E0= -.24754145E+02  EK=  .51723E+01 SP=  .00E+00 SK=  .00E+00 mag=       .985
       N       E                     dE             d eps       ncg     rms          rms(c)                                      
DAV:   1     -.248319291813E+02     .20242E-02    -.25330E+00 14144    .103E+01     .852E-03                                     
RMM:   2     -.248341908251E+02    -.22616E-02    -.34034E-03 14935    .994E-02     .624E-03                                     
RMM:   3     -.248342176288E+02    -.26804E-04    -.45375E-05  9161    .102E-02                                                  
   72 T=  3078. E= -.19661694E+02 F= -.24834218E+02 E0= -.24754389E+02  EK=  .51725E+01 SP=  .00E+00 SK=  .00E+00 mag=       .984
       N       E                     dE             d eps       ncg     rms          rms(c)                                      
DAV:   1     -.248313820954E+02     .28087E-02    -.50745E+00 15192    .118E+01     .966E-03                                     
RMM:   2     -.248344276576E+02    -.30456E-02    -.10217E-02 16292    .140E-01     .918E-03                                     
RMM:   3     -.248344862613E+02    -.58604E-04    -.12336E-04 10057    .138E-02     .459E-03                                     
RMM:   4     -.248345188878E+02    -.32627E-04    -.17673E-05  9071    .786E-03     .178E-03                                     
RMM:   5     -.248345234516E+02    -.45638E-05    -.30056E-06  5705    .453E-03                                                  
   73 T=  3078. E= -.19661707E+02 F= -.24834523E+02 E0= -.24754696E+02  EK=  .51728E+01 SP=  .00E+00 SK=  .00E+00 mag=       .983
       N       E                     dE             d eps       ncg     rms          rms(c)                                      
DAV:   1     -.248253148568E+02     .92040E-02    -.45298E+00 15960    .133E+01     .956E-03                                     
RMM:   2     -.248344769829E+02    -.91621E-02    -.67415E-02 16027    .287E-01     .527E-03                                     
RMM:   3     -.248347379089E+02    -.26093E-03    -.17139E-03 10272    .318E-02     .296E-03                                     
RMM:   4     -.248348021729E+02    -.64264E-04    -.12562E-04  8233    .120E-02     .127E-03                                     
RMM:   5     -.248348324146E+02    -.30242E-04    -.18830E-05  6325    .638E-03     .657E-04                                     
RMM:   6     -.248348345800E+02    -.21654E-05    -.17109E-06  4513    .333E-03                                                  
   74 T=  3079. E= -.19661704E+02 F= -.24834835E+02 E0= -.24755007E+02  EK=  .51731E+01 SP=  .00E+00 SK=  .00E+00 mag=       .982
       N       E                     dE             d eps       ncg     rms          rms(c)                                      
DAV:   1     -.248308817854E+02     .39506E-02    -.16389E+00 15088    .101E+01     .893E-03                                     
RMM:   2     -.248351008632E+02    -.42191E-02    -.25136E-02 14335    .173E-01     .474E-03                                     
RMM:   3     -.248351647522E+02    -.63889E-04    -.40267E-04  9427    .184E-02     .365E-03                                     
RMM:   4     -.248351757314E+02    -.10979E-04    -.27376E-05  5927    .698E-03                                                  
   75 T=  3079. E= -.19661701E+02 F= -.24835176E+02 E0= -.24755349E+02  EK=  .51735E+01 SP=  .00E+00 SK=  .00E+00 mag=       .981
       N       E                     dE             d eps       ncg     rms          rms(c)                                      
DAV:   1     -.248327391559E+02     .24256E-02    -.22582E+00 14368    .953E+00     .899E-03                                     
RMM:   2     -.248354981219E+02    -.27590E-02    -.16507E-02 13985    .131E-01     .352E-03                                     
RMM:   3     -.248355490528E+02    -.50931E-04    -.25501E-04  9300    .146E-02     .237E-03                                     
RMM:   4     -.248355523194E+02    -.32666E-05    -.15104E-05  5174    .558E-03                                                  
   76 T=  3079. E= -.19661697E+02 F= -.24835552E+02 E0= -.24755726E+02  EK=  .51739E+01 SP=  .00E+00 SK=  .00E+00 mag=       .979
       N       E                     dE             d eps       ncg     rms          rms(c)                                      
DAV:   1     -.248345623132E+02     .98674E-03    -.33676E+00 13960    .110E+01     .108E-02                                     
RMM:   2     -.248359306024E+02    -.13683E-02    -.52595E-03 14083    .921E-02     .320E-03                                     
RMM:   3     -.248359594251E+02    -.28823E-04    -.59543E-05  9170    .108E-02                                                  
   77 T=  3079. E= -.19661681E+02 F= -.24835959E+02 E0= -.24756133E+02  EK=  .51743E+01 SP=  .00E+00 SK=  .00E+00 mag=       .978
       N       E                     dE             d eps       ncg     rms          rms(c)                                      
DAV:   1     -.248319855267E+02     .39451E-02    -.46101E+00 14416    .106E+01     .880E-03                                     
RMM:   2     -.248362930951E+02    -.43076E-02    -.37250E-02 12762    .161E-01     .258E-03                                     
RMM:   3     -.248364141851E+02    -.12109E-03    -.58328E-04  9353    .201E-02     .163E-03                                     
RMM:   4     -.248364338394E+02    -.19654E-04    -.45624E-05  6703    .824E-03                                                  
   78 T=  3079. E= -.19661688E+02 F= -.24836434E+02 E0= -.24756608E+02  EK=  .51747E+01 SP=  .00E+00 SK=  .00E+00 mag=       .976
       N       E                     dE             d eps       ncg     rms          rms(c)                                      
DAV:   1     -.248337041448E+02     .27100E-02    -.20034E+00 15128    .911E+00     .860E-03                                     
RMM:   2     -.248368508391E+02    -.31467E-02    -.24394E-02 12906    .128E-01     .343E-03                                     
RMM:   3     -.248369382914E+02    -.87452E-04    -.57120E-04  9068    .181E-02     .220E-03                                     
RMM:   4     -.248369481453E+02    -.98538E-05    -.67382E-05  5210    .661E-03                                                  
   79 T=  3080. E= -.19661686E+02 F= -.24836948E+02 E0= -.24757123E+02  EK=  .51753E+01 SP=  .00E+00 SK=  .00E+00 mag=       .975
       N       E                     dE             d eps       ncg     rms          rms(c)                                      
DAV:   1     -.248346793716E+02     .22589E-02    -.43067E+00 13208    .106E+01     .839E-03                                     
RMM:   2     -.248374467403E+02    -.27674E-02    -.26176E-02 12070    .127E-01     .342E-03                                     
RMM:   3     -.248375136403E+02    -.66900E-04    -.45247E-04  9853    .188E-02     .201E-03                                     
RMM:   4     -.248375193459E+02    -.57057E-05    -.36549E-05  4718    .649E-03                                                  
   80 T=  3080. E= -.19661681E+02 F= -.24837519E+02 E0= -.24757695E+02  EK=  .51758E+01 SP=  .00E+00 SK=  .00E+00 mag=       .973
       N       E                     dE             d eps       ncg     rms          rms(c)                                      
DAV:   1     -.248379783226E+02    -.46468E-03    -.38708E+00 12288    .120E+01     .811E-03                                     
RMM:   2     -.248381443882E+02    -.16607E-03    -.26792E-04 12312    .344E-02     .337E-03                                     
[...]
RMM:   5     -.248356214828E+02    -.10265E-04    -.25258E-07  2792    .265E-03                                                  
  376 T=  3080. E= -.19660496E+02 F= -.24835621E+02 E0= -.24756172E+02  EK=  .51751E+01 SP=  .00E+00 SK=  .00E+00 mag=      1.000
       N       E                     dE             d eps       ncg     rms          rms(c)                                      
DAV:   1     -.248287881777E+02     .68230E-02    -.11249E+00 11000    .634E+00     .766E-03                                     
RMM:   2     -.248305195849E+02    -.17314E-02    -.48009E-04 10811    .264E-02     .555E-03                                     
RMM:   3     -.248316797865E+02    -.11602E-02    -.15778E-05  6766    .593E-03     .554E-03                                     
RMM:   4     -.248345444790E+02    -.28647E-02    -.40214E-06  6244    .481E-03     .279E-03                                     
RMM:   5     -.248354987464E+02    -.95427E-03    -.10156E-05  6845    .661E-03     .870E-04                                     
RMM:   6     -.248355452286E+02    -.46482E-04    -.23603E-07  2794    .259E-03     .277E-04                                     
RMM:   7     -.248356100959E+02    -.64867E-04    -.64369E-08  2372    .232E-03     .125E-04                                     
RMM:   8     -.248356628843E+02    -.52788E-04    -.39901E-07  2792    .266E-03     .288E-05                                     
RMM:   9     -.248356644133E+02    -.15289E-05    -.61303E-08  1872    .238E-03                                                  
  377 T=  3080. E= -.19660615E+02 F= -.24835664E+02 E0= -.24756215E+02  EK=  .51750E+01 SP=  .00E+00 SK=  .00E+00 mag=      1.000
       N       E                     dE             d eps       ncg     rms          rms(c)                                      
DAV:   1     -.248278586017E+02     .78043E-02    -.16570E+00 11376    .584E+00     .768E-03                                     
RMM:   2     -.248299520682E+02    -.20935E-02    -.28445E-03 11025    .439E-02     .559E-03                                     
RMM:   3     -.248314681668E+02    -.15161E-02    -.64864E-05  6838    .816E-03     .531E-03                                     
RMM:   4     -.248340626098E+02    -.25944E-02    -.90052E-06  6283    .531E-03     .300E-03                                     
RMM:   5     -.248355879645E+02    -.15254E-02    -.72382E-06  6697    .568E-03     .110E-03                                     
RMM:   6     -.248355499782E+02     .37986E-04    -.11877E-06  3588    .350E-03     .420E-04                                     
RMM:   7     -.248355734341E+02    -.23456E-04    -.83417E-08  2279    .240E-03                                                  
  378 T=  3080. E= -.19660600E+02 F= -.24835573E+02 E0= -.24756126E+02  EK=  .51750E+01 SP=  .00E+00 SK=  .00E+00 mag=      1.000
       N       E                     dE             d eps       ncg     rms          rms(c)                                      
DAV:   1     -.248197530428E+02     .15797E-01    -.17233E+00 11136    .539E+00     .904E-03                                     
RMM:   2     -.248301078241E+02    -.10355E-01    -.86343E-02 10710    .114E-01     .577E-03                                     
RMM:   3     -.248312733860E+02    -.11656E-02    -.16395E-03  6952    .160E-02     .601E-03                                     
RMM:   4     -.248318798360E+02    -.60645E-03    -.18393E-04  3867    .581E-03     .389E-03                                     
RMM:   5     -.248340730637E+02    -.21932E-02    -.52699E-06  5718    .445E-03     .262E-03                                     
RMM:   6     -.248351230046E+02    -.10499E-02    -.14719E-06  4667    .378E-03     .763E-04                                     
RMM:   7     -.248355127817E+02    -.38978E-03    -.32162E-06  5136    .453E-03     .353E-04                                     
RMM:   8     -.248354911719E+02     .21610E-04    -.71763E-07  3187    .332E-03                                                  
  379 T=  3080. E= -.19660592E+02 F= -.24835491E+02 E0= -.24756044E+02  EK=  .51749E+01 SP=  .00E+00 SK=  .00E+00 mag=      1.000
       N       E                     dE             d eps       ncg     rms          rms(c)                                      
DAV:   1     -.248013027676E+02     .34210E-01    -.40728E+00 11616    .782E+00     .129E-02                                     
RMM:   2     -.248356271106E+02    -.34324E-01    -.32537E-01 11496    .236E-01     .861E-03                                     
RMM:   3     -.248305628153E+02     .50643E-02    -.31734E-03  9916    .376E-02     .940E-03                                     
RMM:   4     -.248312485589E+02    -.68574E-03    -.14795E-04  7848    .111E-02     .488E-03                                     
RMM:   5     -.248321103220E+02    -.86176E-03    -.90859E-06  4256    .442E-03     .400E-03                                     
RMM:   6     -.248334246020E+02    -.13143E-02    -.12867E-06  4525    .360E-03     .247E-03                                     
RMM:   7     -.248351603251E+02    -.17357E-02    -.30642E-06  6942    .470E-03     .695E-04                                     
RMM:   8     -.248353710248E+02    -.21070E-03    -.54413E-07  3325    .270E-03     .424E-04                                     
RMM:   9     -.248354311731E+02    -.60148E-04    -.17167E-06  4236    .355E-03     .113E-04                                     
RMM:  10     -.248354358299E+02    -.46568E-05    -.46491E-08  1820    .215E-03                                                  
  380 T=  3080. E= -.19660611E+02 F= -.24835436E+02 E0= -.24755991E+02  EK=  .51748E+01 SP=  .00E+00 SK=  .00E+00 mag=      1.000
       N       E                     dE             d eps       ncg     rms          rms(c)                                      
DAV:   1     -.248280896560E+02     .73415E-02    -.11224E+00 11216    .644E+00     .763E-03                                     
RMM:   2     -.248299437471E+02    -.18541E-02    -.11183E-03 11050    .345E-02     .545E-03                                     
RMM:   3     -.248346225702E+02    -.46788E-02    -.19268E-05  7575    .734E-03     .111E-03                                     
RMM:   4     -.248352836376E+02    -.66107E-03    -.79772E-06  6318    .606E-03     .120E-03                                     
RMM:   5     -.248352623476E+02     .21290E-04    -.40634E-07  3022    .286E-03                                                  
  381 T=  3079. E= -.19660511E+02 F= -.24835262E+02 E0= -.24755819E+02  EK=  .51748E+01 SP=  .00E+00 SK=  .00E+00 mag=      1.000
       N       E                     dE             d eps       ncg     rms          rms(c)                                      
DAV:   1     -.248281369674E+02     .71467E-02    -.93670E-01 11288    .481E+00     .777E-03                                     
RMM:   2     -.248301085651E+02    -.19716E-02    -.28966E-03 10765    .443E-02     .557E-03                                     
RMM:   3     -.248314026859E+02    -.12941E-02    -.69322E-05  6710    .834E-03     .561E-03                                     
RMM:   4     -.248338188269E+02    -.24161E-02    -.66588E-06  5736    .495E-03     .272E-03                                     
RMM:   5     -.248351716351E+02    -.13528E-02    -.33702E-06  6122    .444E-03     .125E-03                                     
RMM:   6     -.248351661053E+02     .55297E-05    -.34553E-06  4804    .448E-03                                                  
  382 T=  3079. E= -.19660488E+02 F= -.24835166E+02 E0= -.24755724E+02  EK=  .51747E+01 SP=  .00E+00 SK=  .00E+00 mag=      1.000
       N       E                     dE             d eps       ncg     rms          rms(c)                                      
DAV:   1     -.248279259990E+02     .72456E-02    -.11512E+00 11048    .527E+00     .762E-03                                     
RMM:   2     -.248297768005E+02    -.18508E-02    -.10553E-03 10478    .270E-02     .548E-03                                     
RMM:   3     -.248311918917E+02    -.14151E-02    -.17166E-05  6653    .591E-03     .549E-03                                     
RMM:   4     -.248340924643E+02    -.29006E-02    -.36845E-06  6223    .469E-03     .277E-03                                     
RMM:   5     -.248350724844E+02    -.98002E-03    -.77517E-06  6926    .609E-03     .920E-04                                     
RMM:   6     -.248351467125E+02    -.74228E-04    -.19950E-07  2782    .246E-03     .392E-04                                     
RMM:   7     -.248351888059E+02    -.42093E-04    -.63391E-08  2384    .228E-03     .149E-04                                     
RMM:   8     -.248352079202E+02    -.19114E-04    -.72756E-08  2368    .235E-03                                                  
  383 T=  3079. E= -.19660603E+02 F= -.24835208E+02 E0= -.24755767E+02  EK=  .51746E+01 SP=  .00E+00 SK=  .00E+00 mag=      1.000
       N       E                     dE             d eps       ncg     rms          rms(c)                                      
DAV:   1     -.248268833482E+02     .83055E-02    -.14095E+00 11480    .430E+00     .782E-03                                     
RMM:   2     -.248296034049E+02    -.27201E-02    -.95763E-03 10245    .489E-02     .554E-03                                     
RMM:   3     -.248322376752E+02    -.26343E-02    -.12200E-04  5395    .783E-03     .292E-03                                     
RMM:   4     -.248344573461E+02    -.22197E-02    -.10841E-05  6532    .543E-03     .366E-03                                     
RMM:   5     -.248351351944E+02    -.67785E-03    -.38549E-06  5101    .447E-03     .882E-04                                     
RMM:   6     -.248351100472E+02     .25147E-04    -.79021E-07  3370    .337E-03                                                  
  384 T=  3079. E= -.19660578E+02 F= -.24835110E+02 E0= -.24755670E+02  EK=  .51745E+01 SP=  .00E+00 SK=  .00E+00 mag=      1.000
       N       E                     dE             d eps       ncg     rms          rms(c)                                      
DAV:   1     -.248056468333E+02     .29488E-01    -.10993E+00 11160    .443E+00     .106E-02                                     
RMM:   2     -.248318055410E+02    -.26159E-01    -.24455E-01 10403    .148E-01     .765E-03                                     
RMM:   3     -.248301226662E+02     .16829E-02    -.25679E-03  9227    .245E-02     .754E-03                                     
RMM:   4     -.248311914932E+02    -.10688E-02    -.89810E-05  5134    .658E-03     .436E-03                                     
RMM:   5     -.248324430970E+02    -.12516E-02    -.49583E-06  4590    .396E-03     .337E-03                                     
RMM:   6     -.248340184233E+02    -.15753E-02    -.18029E-06  5669    .408E-03     .158E-03                                     
RMM:   7     -.248349891900E+02    -.97077E-03    -.21687E-06  5713    .400E-03     .605E-04                                     
RMM:   8     -.248350555659E+02    -.66376E-04    -.55959E-07  3157    .284E-03     .391E-04                                     
RMM:   9     -.248350570682E+02    -.15023E-05    -.50209E-07  3281    .294E-03                                                  
  385 T=  3079. E= -.19660597E+02 F= -.24835057E+02 E0= -.24755619E+02  EK=  .51745E+01 SP=  .00E+00 SK=  .00E+00 mag=      1.000
       N       E                     dE             d eps       ncg     rms          rms(c)                                      
DAV:   1     -.248275044419E+02     .75511E-02    -.10964E+00 11520    .519E+00     .770E-03                                     
RMM:   2     -.248295003015E+02    -.19959E-02    -.23807E-03 10673    .327E-02     .545E-03                                     
RMM:   3     -.248315315152E+02    -.20312E-02    -.57276E-05  7150    .763E-03     .565E-03                                     
RMM:   4     -.248340031145E+02    -.24716E-02    -.77477E-06  5898    .491E-03     .154E-03                                     
RMM:   5     -.248349868341E+02    -.98372E-03    -.42753E-06  5926    .481E-03     .120E-03                                     
RMM:   6     -.248349462542E+02     .40580E-04    -.86526E-07  3337    .331E-03     .427E-04                                     
RMM:   7     -.248349576123E+02    -.11358E-04    -.65120E-08  2043    .249E-03                                                  
  386 T=  3079. E= -.19660570E+02 F= -.24834958E+02 E0= -.24755520E+02  EK=  .51744E+01 SP=  .00E+00 SK=  .00E+00 mag=      1.000
       N       E                     dE             d eps       ncg     rms          rms(c)                                      
DAV:   1     -.248276056904E+02     .73406E-02    -.83496E-01 11312    .581E+00     .775E-03                                     
RMM:   2     -.248295312776E+02    -.19256E-02    -.20097E-03 10982    .404E-02     .552E-03                                     
RMM:   3     -.248325828669E+02    -.30516E-02    -.40552E-05  7256    .791E-03     .468E-03                                     
RMM:   4     -.248341701276E+02    -.15873E-02    -.46357E-06  5680    .468E-03     .160E-03                                     
RMM:   5     -.248348008532E+02    -.63073E-03    -.52786E-06  5667    .519E-03     .554E-04                                     
RMM:   6     -.248348097328E+02    -.88796E-05    -.19948E-07  2429    .265E-03                                                  
  387 T=  3079. E= -.19660493E+02 F= -.24834810E+02 E0= -.24755373E+02  EK=  .51743E+01 SP=  .00E+00 SK=  .00E+00 mag=      1.000
       N       E                     dE             d eps       ncg     rms          rms(c)                                      
DAV:   1     -.248274638607E+02     .73370E-02    -.17972E+00 11600    .648E+00     .768E-03                                     
RMM:   2     -.248295881937E+02    -.21243E-02    -.42737E-03 11033    .567E-02     .543E-03                                     
RMM:   3     -.248326025672E+02    -.30144E-02    -.80992E-05  6979    .980E-03     .389E-03                                     
RMM:   4     -.248336895339E+02    -.10870E-02    -.72428E-06  5062    .485E-03     .210E-03                                     
RMM:   5     -.248348327292E+02    -.11432E-02    -.55981E-06  6079    .527E-03     .990E-04                                     
RMM:   6     -.248347716417E+02     .61087E-04    -.47912E-07  3064    .301E-03     .349E-04                                     
RMM:   7     -.248347892047E+02    -.17563E-04    -.45366E-08  1902    .250E-03                                                  
  388 T=  3079. E= -.19660543E+02 F= -.24834789E+02 E0= -.24755355E+02  EK=  .51742E+01 SP=  .00E+00 SK=  .00E+00 mag=      1.000
       N       E                     dE             d eps       ncg     rms          rms(c)                                      
DAV:   1     -.248274166813E+02     .73550E-02    -.12501E+00 11024    .616E+00     .767E-03                                     
RMM:   2     -.248292404193E+02    -.18237E-02    -.57164E-04 10977    .298E-02     .549E-03                                     
RMM:   3     -.248338272310E+02    -.45868E-02    -.15072E-05  7374    .693E-03     .215E-03                                     
RMM:   4     -.248346300414E+02    -.80281E-03    -.28705E-06  5616    .437E-03     .262E-03                                     
RMM:   5     -.248346412093E+02    -.11168E-04    -.27049E-06  4736    .431E-03                                                  
  389 T=  3079. E= -.19660466E+02 F= -.24834641E+02 E0= -.24755210E+02  EK=  .51742E+01 SP=  .00E+00 SK=  .00E+00 mag=      1.000
       N       E                     dE             d eps       ncg     rms          rms(c)                                      
DAV:   1     -.248276114208E+02     .70186E-02    -.11667E+00 11336    .544E+00     .774E-03                                     
RMM:   2     -.248295186432E+02    -.19072E-02    -.22744E-03 10326    .320E-02     .551E-03                                     
RMM:   3     -.248324764942E+02    -.29579E-02    -.26223E-05  7136    .645E-03     .498E-03                                     
RMM:   4     -.248341321552E+02    -.16557E-02    -.36650E-06  5513    .433E-03     .130E-03                                     
RMM:   5     -.248345599731E+02    -.42782E-03    -.40717E-06  5308    .479E-03     .444E-04                                     
RMM:   6     -.248345842238E+02    -.24251E-04    -.16788E-07  2453    .258E-03                                                  
  390 T=  3079. E= -.19660480E+02 F= -.24834584E+02 E0= -.24755153E+02  EK=  .51741E+01 SP=  .00E+00 SK=  .00E+00 mag=      1.000
       N       E                     dE             d eps       ncg     rms          rms(c)                                      
DAV:   1     -.248272805024E+02     .72795E-02    -.47164E-01 11096    .542E+00     .759E-03                                     
RMM:   2     -.248291816901E+02    -.19012E-02    -.15650E-03 10549    .298E-02     .547E-03                                     
RMM:   3     -.248316762613E+02    -.24946E-02    -.15679E-05  6921    .605E-03     .532E-03                                     
RMM:   4     -.248341375462E+02    -.24613E-02    -.32606E-06  5994    .457E-03     .128E-03                                     
RMM:   5     -.248345603059E+02    -.42276E-03    -.34637E-06  5286    .462E-03     .109E-03                                     
RMM:   6     -.248345852259E+02    -.24920E-04    -.13829E-07  2494    .245E-03                                                  
  391 T=  3079. E= -.19660550E+02 F= -.24834585E+02 E0= -.24755155E+02  EK=  .51740E+01 SP=  .00E+00 SK=  .00E+00 mag=      1.000
       N       E                     dE             d eps       ncg     rms          rms(c)                                      
DAV:   1     -.248271952855E+02     .73650E-02    -.81474E-01 11392    .611E+00     .785E-03                                     
RMM:   2     -.248290620149E+02    -.18667E-02    -.11306E-03 10818    .322E-02     .560E-03                                     
RMM:   3     -.248328117992E+02    -.37498E-02    -.29602E-05  6996    .704E-03     .387E-03                                     
RMM:   4     -.248340284389E+02    -.12166E-02    -.48984E-06  5321    .445E-03     .183E-03                                     
RMM:   5     -.248344176670E+02    -.38923E-03    -.36251E-06  5252    .470E-03     .657E-04                                     
RMM:   6     -.248344339508E+02    -.16284E-04    -.16973E-07  2425    .259E-03                                                  
  392 T=  3079. E= -.19660467E+02 F= -.24834434E+02 E0= -.24755005E+02  EK=  .51740E+01 SP=  .00E+00 SK=  .00E+00 mag=      1.000
       N       E                     dE             d eps       ncg     rms          rms(c)                                      
DAV:   1     -.248263321025E+02     .80856E-02    -.32938E+00 11336    .570E+00     .768E-03                                     
RMM:   2     -.248292933116E+02    -.29612E-02    -.12831E-02 10846    .718E-02     .537E-03                                     
RMM:   3     -.248312405218E+02    -.19472E-02    -.23605E-04  6919    .115E-02     .520E-03                                     
RMM:   4     -.248328227618E+02    -.15822E-02    -.21762E-05  4874    .530E-03     .201E-03                                     
RMM:   5     -.248344857488E+02    -.16630E-02    -.56282E-06  6076    .508E-03     .562E-04                                     
RMM:   6     -.248344703660E+02     .15383E-04    -.49382E-07  2960    .295E-03                                                  
  393 T=  3079. E= -.19660572E+02 F= -.24834470E+02 E0= -.24755043E+02  EK=  .51739E+01 SP=  .00E+00 SK=  .00E+00 mag=      1.000
