       N       E                     dE             d eps       ncg     rms          rms(c)                                      
DAV:   1      .111313912986E+04     .11131E+04    -.62904E+04 16320    .995E+02                                                  
DAV:   2      .173466185661E+02    -.10958E+04    -.10388E+04 16904    .279E+02                                                  
DAV:   3     -.254017830845E+02    -.42748E+02    -.42186E+02 18064    .672E+01                                                  
DAV:   4     -.257787973510E+02    -.37701E+00    -.37651E+00 18056    .606E+00                                                  
DAV:   5     -.257831323288E+02    -.43350E-02    -.43349E-02 18104    .560E-01     .167E+01                                     
RMM:   6     -.242692107930E+02     .15139E+01    -.57447E+00 16320    .811E+00     .106E+01                                     
RMM:   7     -.307105651411E+02    -.64414E+01    -.11927E+01 16366    .703E+00     .891E+00                                     
RMM:   8     -.265465794382E+02     .41640E+01    -.90486E+00 16382    .557E+00     .523E+00                                     
RMM:   9     -.263205190512E+02     .22606E+00    -.26262E+00 16398    .289E+00     .470E+00                                     
RMM:  10     -.249100497120E+02     .14105E+01    -.80194E-01 16399    .185E+00     .102E+00                                     
RMM:  11     -.248594348842E+02     .50615E-01    -.12409E-01 16417    .858E-01     .253E-01                                     
RMM:  12     -.248569642410E+02     .24706E-02    -.55266E-03 16437    .196E-01     .138E-01                                     
RMM:  13     -.248580550784E+02    -.10908E-02    -.99344E-04 16377    .936E-02     .535E-02                                     
RMM:  14     -.248587001188E+02    -.64504E-03    -.65678E-05 10514    .233E-02     .235E-02                                     
RMM:  15     -.248588580399E+02    -.15792E-03    -.36422E-05  9870    .186E-02     .860E-03                                     
RMM:  16     -.248588800957E+02    -.22056E-04    -.68976E-06  9535    .755E-03                                                  
    1 T=  3043. E= -.19744643E+02 F= -.24858880E+02 E0= -.24778357E+02  EK=  .51142E+01 SP=  .00E+00 SK=  .00E+00 mag=       .999
       N       E                     dE             d eps       ncg     rms          rms(c)                                      
DAV:   1     -.244031368882E+02     .45572E+00    -.15507E-01 17104    .145E-01     .301E-01                                     
RMM:   2     -.245427513169E+02    -.13961E+00    -.91122E-04 10804    .358E-02     .217E-01                                     
RMM:   3     -.248370390634E+02    -.29429E+00    -.13533E-03 11664    .429E-02     .221E-02                                     
RMM:   4     -.248548118312E+02    -.17773E-01    -.21259E-05  9882    .953E-03     .121E-02                                     
RMM:   5     -.248586161901E+02    -.38044E-02    -.26300E-05  6581    .595E-03     .208E-03                                     
RMM:   6     -.248583411348E+02     .27506E-03    -.77939E-06  5058    .433E-03     .586E-04                                     
RMM:   7     -.248586447784E+02    -.30364E-03    -.89015E-06  4226    .382E-03     .186E-04                                     
RMM:   8     -.248586387136E+02     .60649E-05    -.12083E-06  3152    .269E-03                                                  
    2 T=  3043. E= -.19744635E+02 F= -.24858639E+02 E0= -.24778115E+02  EK=  .51140E+01 SP=  .00E+00 SK=  .00E+00 mag=      1.000
       N       E                     dE             d eps       ncg     rms          rms(c)                                      
DAV:   1     -.247978324028E+02     .60812E-01    -.40611E-01 12728    .514E+00     .418E-02                                     
RMM:   2     -.248206351083E+02    -.22803E-01    -.75100E-02 12107    .193E-01     .290E-02                                     
RMM:   3     -.248521053220E+02    -.31470E-01    -.27476E-03 11187    .350E-02     .125E-02                                     
RMM:   4     -.248570079820E+02    -.49027E-02    -.36257E-04 10007    .153E-02     .406E-03                                     
RMM:   5     -.248576757193E+02    -.66774E-03    -.39189E-05  7574    .662E-03     .225E-03                                     
RMM:   6     -.248580101237E+02    -.33440E-03    -.25936E-05  5407    .538E-03     .106E-03                                     
RMM:   7     -.248583036058E+02    -.29348E-03    -.24450E-05  5899    .672E-03     .466E-04                                     
RMM:   8     -.248583926649E+02    -.89059E-04    -.17365E-06  3253    .293E-03     .172E-04                                     
RMM:   9     -.248584162470E+02    -.23582E-04    -.55593E-07  2565    .277E-03                                                  
    3 T=  3043. E= -.19744644E+02 F= -.24858416E+02 E0= -.24777893E+02  EK=  .51138E+01 SP=  .00E+00 SK=  .00E+00 mag=      1.000
       N       E                     dE             d eps       ncg     rms          rms(c)                                      
DAV:   1     -.248469154445E+02     .11477E-01    -.36920E+00 13928    .101E+01     .952E-03                                     
RMM:   2     -.248539676473E+02    -.70522E-02    -.35394E-02 12382    .124E-01     .473E-03                                     
RMM:   3     -.248555123725E+02    -.15447E-02    -.18575E-03  8261    .197E-02     .288E-03                                     
RMM:   4     -.248572857355E+02    -.17734E-02    -.86514E-05  6387    .801E-03     .130E-03                                     
RMM:   5     -.248581305482E+02    -.84481E-03    -.47763E-05  7358    .805E-03     .384E-04                                     
RMM:   6     -.248581746255E+02    -.44077E-04    -.27064E-06  4160    .389E-03     .194E-04                                     
RMM:   7     -.248581748273E+02    -.20186E-06    -.49624E-07  2732    .275E-03                                                  
    4 T=  3043. E= -.19744631E+02 F= -.24858175E+02 E0= -.24777652E+02  EK=  .51135E+01 SP=  .00E+00 SK=  .00E+00 mag=      1.000
       N       E                     dE             d eps       ncg     rms          rms(c)                                      
DAV:   1     -.248486713448E+02     .95033E-02    -.45424E+00 12248    .991E+00     .841E-03                                     
RMM:   2     -.248564627410E+02    -.77914E-02    -.17817E-02 11268    .926E-02     .273E-03                                     
RMM:   3     -.248571434298E+02    -.68069E-03    -.36407E-04  8062    .153E-02     .159E-03                                     
RMM:   4     -.248575694887E+02    -.42606E-03    -.29463E-05  5797    .705E-03     .696E-04                                     
RMM:   5     -.248578331051E+02    -.26362E-03    -.64564E-06  4988    .469E-03     .237E-04                                     
RMM:   6     -.248579381657E+02    -.10506E-03    -.67580E-06  4658    .437E-03     .136E-04                                     
RMM:   7     -.248579504612E+02    -.12295E-04    -.14866E-06  3076    .326E-03                                                  
    5 T=  3043. E= -.19744633E+02 F= -.24857950E+02 E0= -.24777429E+02  EK=  .51133E+01 SP=  .00E+00 SK=  .00E+00 mag=      1.000
       N       E                     dE             d eps       ncg     rms          rms(c)                                      
DAV:   1     -.248497276113E+02     .82106E-02    -.39481E+00 12616    .107E+01     .807E-03                                     
RMM:   2     -.248565114011E+02    -.67838E-02    -.50642E-03 12221    .768E-02     .247E-03                                     
RMM:   3     -.248570904110E+02    -.57901E-03    -.98628E-05  8995    .129E-02     .146E-03                                     
RMM:   4     -.248573457384E+02    -.25533E-03    -.11261E-05  5912    .578E-03     .808E-04                                     
RMM:   5     -.248575011354E+02    -.15540E-03    -.13543E-06  4108    .359E-03     .466E-04                                     
RMM:   6     -.248576738424E+02    -.17271E-03    -.47051E-06  4404    .413E-03     .166E-04                                     
RMM:   7     -.248576900346E+02    -.16192E-04    -.11531E-06  3556    .335E-03                                                  
    6 T=  3043. E= -.19744598E+02 F= -.24857690E+02 E0= -.24777168E+02  EK=  .51131E+01 SP=  .00E+00 SK=  .00E+00 mag=      1.000
       N       E                     dE             d eps       ncg     rms          rms(c)                                      
DAV:   1     -.248499094816E+02     .77644E-02    -.21172E+00 11368    .993E+00     .793E-03                                     
RMM:   2     -.248566622895E+02    -.67528E-02    -.10607E-03 11541    .405E-02     .288E-03                                     
RMM:   3     -.248569025602E+02    -.24027E-03    -.21014E-05  8588    .832E-03     .195E-03                                     
RMM:   4     -.248572515497E+02    -.34899E-03    -.25869E-06  5224    .426E-03     .972E-04                                     
RMM:   5     -.248573454909E+02    -.93941E-04    -.19893E-06  5446    .419E-03     .290E-04                                     
RMM:   6     -.248574417514E+02    -.96260E-04    -.12955E-06  3435    .327E-03     .158E-04                                     
RMM:   7     -.248575061782E+02    -.64427E-04    -.11060E-06  3442    .321E-03     .507E-05                                     
RMM:   8     -.248575091856E+02    -.30074E-05    -.26753E-07  2423    .270E-03                                                  
    7 T=  3043. E= -.19744641E+02 F= -.24857509E+02 E0= -.24776988E+02  EK=  .51129E+01 SP=  .00E+00 SK=  .00E+00 mag=      1.000
       N       E                     dE             d eps       ncg     rms          rms(c)                                      
DAV:   1     -.248483521418E+02     .91540E-02    -.35066E+00 12432    .111E+01     .808E-03                                     
RMM:   2     -.248565220740E+02    -.81699E-02    -.14318E-02 11683    .997E-02     .339E-03                                     
RMM:   3     -.248569359946E+02    -.41392E-03    -.30224E-04  9396    .169E-02     .217E-03                                     
RMM:   4     -.248570077767E+02    -.71782E-04    -.31864E-05  5766    .697E-03     .132E-03                                     
RMM:   5     -.248571820515E+02    -.17427E-03    -.46775E-06  4829    .420E-03     .366E-04                                     
RMM:   6     -.248571605121E+02     .21539E-04    -.18579E-06  3779    .341E-03                                                  
    8 T=  3043. E= -.19744514E+02 F= -.24857161E+02 E0= -.24776640E+02  EK=  .51126E+01 SP=  .00E+00 SK=  .00E+00 mag=      1.000
       N       E                     dE             d eps       ncg     rms          rms(c)                                      
DAV:   1     -.248484657446E+02     .87163E-02    -.36801E+00 12064    .112E+01     .802E-03                                     
RMM:   2     -.248561356875E+02    -.76699E-02    -.10211E-02 11961    .835E-02     .390E-03                                     
RMM:   3     -.248566790229E+02    -.54334E-03    -.33097E-04  9644    .141E-02     .179E-03                                     
RMM:   4     -.248568497939E+02    -.17077E-03    -.24774E-05  5427    .580E-03     .114E-03                                     
RMM:   5     -.248569587766E+02    -.10898E-03    -.69444E-06  5517    .455E-03     .325E-04                                     
RMM:   6     -.248570194287E+02    -.60652E-04    -.49358E-07  2882    .288E-03     .256E-04                                     
RMM:   7     -.248570583458E+02    -.38917E-04    -.19925E-06  3687    .357E-03     .173E-04                                     
RMM:   8     -.248570679889E+02    -.96431E-05    -.10313E-06  2962    .309E-03                                                  
    9 T=  3042. E= -.19744642E+02 F= -.24857068E+02 E0= -.24776548E+02  EK=  .51124E+01 SP=  .00E+00 SK=  .00E+00 mag=      1.000
       N       E                     dE             d eps       ncg     rms          rms(c)                                      
DAV:   1     -.248423579720E+02     .14700E-01    -.19362E+00 12280    .115E+01     .875E-03                                     
RMM:   2     -.248558556403E+02    -.13498E-01    -.68840E-02 12472    .150E-01     .345E-03                                     
RMM:   3     -.248564703222E+02    -.61468E-03    -.17379E-03  9821    .220E-02     .145E-03                                     
RMM:   4     -.248565375167E+02    -.67195E-04    -.82619E-05  5218    .687E-03     .127E-03                                     
RMM:   5     -.248566492030E+02    -.11169E-03    -.73205E-06  3357    .341E-03     .946E-04                                     
RMM:   6     -.248567268646E+02    -.77662E-04    -.80795E-07  3633    .306E-03     .477E-04                                     
RMM:   7     -.248568101534E+02    -.83289E-04    -.96322E-07  4040    .343E-03     .179E-04                                     
RMM:   8     -.248568422797E+02    -.32126E-04    -.19615E-06  3874    .362E-03     .965E-05                                     
RMM:   9     -.248568463039E+02    -.40242E-05    -.13551E-07  2278    .266E-03                                                  
   10 T=  3042. E= -.19744637E+02 F= -.24856846E+02 E0= -.24776327E+02  EK=  .51122E+01 SP=  .00E+00 SK=  .00E+00 mag=      1.000
       N       E                     dE             d eps       ncg     rms          rms(c)                                      
DAV:   1     -.248471452556E+02     .96970E-02    -.26436E+00 12296    .105E+01     .856E-03                                     
RMM:   2     -.248557070051E+02    -.85617E-02    -.19744E-02 11747    .132E-01     .291E-03                                     
RMM:   3     -.248562084344E+02    -.50143E-03    -.38156E-04  8936    .196E-02     .186E-03                                     
RMM:   4     -.248564279096E+02    -.21948E-03    -.30798E-05  5906    .755E-03     .957E-04                                     
RMM:   5     -.248565632892E+02    -.13538E-03    -.55100E-06  5495    .479E-03     .345E-04                                     
RMM:   6     -.248565934977E+02    -.30208E-04    -.11402E-06  3311    .316E-03     .146E-04                                     
RMM:   7     -.248566272462E+02    -.33748E-04    -.94809E-07  3318    .310E-03     .615E-05                                     
RMM:   8     -.248566332519E+02    -.60057E-05    -.21393E-07  2471    .264E-03                                                  
   11 T=  3042. E= -.19744640E+02 F= -.24856633E+02 E0= -.24776115E+02  EK=  .51120E+01 SP=  .00E+00 SK=  .00E+00 mag=      1.000
       N       E                     dE             d eps       ncg     rms          rms(c)                                      
DAV:   1     -.248469760559E+02     .96512E-02    -.15574E+00 12216    .988E+00     .818E-03                                     
RMM:   2     -.248556118627E+02    -.86358E-02    -.19199E-02 11827    .119E-01     .391E-03                                     
RMM:   3     -.248558700947E+02    -.25823E-03    -.36227E-04  9369    .174E-02     .233E-03                                     
RMM:   4     -.248560364667E+02    -.16637E-03    -.36967E-05  5739    .684E-03     .164E-03                                     
RMM:   5     -.248562055813E+02    -.16911E-03    -.43376E-06  4619    .384E-03     .806E-04                                     
RMM:   6     -.248563494759E+02    -.14389E-03    -.37423E-06  5121    .439E-03     .312E-04                                     
RMM:   7     -.248563932309E+02    -.43755E-04    -.12789E-06  3379    .325E-03     .148E-04                                     
RMM:   8     -.248564161367E+02    -.22906E-04    -.16786E-06  3239    .325E-03                                                  
   12 T=  3042. E= -.19744638E+02 F= -.24856416E+02 E0= -.24775898E+02  EK=  .51118E+01 SP=  .00E+00 SK=  .00E+00 mag=      1.000
       N       E                     dE             d eps       ncg     rms          rms(c)                                      
DAV:   1     -.248484878458E+02     .79054E-02    -.23558E+00 11704    .104E+01     .797E-03                                     
RMM:   2     -.248553449556E+02    -.68571E-02    -.25479E-03 11711    .576E-02     .356E-03                                     
RMM:   3     -.248557148128E+02    -.36986E-03    -.60962E-05  9166    .106E-02     .200E-03                                     
RMM:   4     -.248558098528E+02    -.95040E-04    -.46917E-06  4565    .428E-03     .171E-03                                     
RMM:   5     -.248560841353E+02    -.27428E-03    -.22966E-06  4885    .394E-03     .713E-04                                     
RMM:   6     -.248561703742E+02    -.86239E-04    -.20404E-06  4424    .386E-03     .307E-04                                     
RMM:   7     -.248561742746E+02    -.39004E-05    -.17847E-06  3836    .344E-03                                                  
   13 T=  3042. E= -.19744608E+02 F= -.24856174E+02 E0= -.24775657E+02  EK=  .51116E+01 SP=  .00E+00 SK=  .00E+00 mag=      1.000
       N       E                     dE             d eps       ncg     rms          rms(c)                                      
DAV:   1     -.248354909550E+02     .20679E-01    -.52802E+00 12504    .115E+01     .122E-02                                     
RMM:   2     -.248550664757E+02    -.19576E-01    -.13077E-01 12336    .233E-01     .477E-03                                     
RMM:   3     -.248555898645E+02    -.52339E-03    -.25136E-03 10173    .322E-02     .257E-03                                     
RMM:   4     -.248556806678E+02    -.90803E-04    -.15872E-04  5266    .967E-03     .211E-03                                     
RMM:   5     -.248558359648E+02    -.15530E-03    -.13136E-05  4062    .406E-03     .131E-03                                     
RMM:   6     -.248559676428E+02    -.13168E-03    -.77576E-06  5760    .542E-03     .366E-04                                     
RMM:   7     -.248559706091E+02    -.29663E-05    -.31759E-07  2547    .280E-03                                                  
   14 T=  3042. E= -.19744614E+02 F= -.24855971E+02 E0= -.24775453E+02  EK=  .51114E+01 SP=  .00E+00 SK=  .00E+00 mag=      1.000
       N       E                     dE             d eps       ncg     rms          rms(c)                                      
DAV:   1     -.248438318664E+02     .12136E-01    -.31911E+00 12648    .114E+01     .908E-03                                     
RMM:   2     -.248546004988E+02    -.10769E-01    -.43931E-02 11968    .187E-01     .431E-03                                     
RMM:   3     -.248551739257E+02    -.57343E-03    -.77041E-04  9797    .242E-02     .258E-03                                     
RMM:   4     -.248554617731E+02    -.28785E-03    -.46240E-05  5301    .792E-03     .197E-03                                     
RMM:   5     -.248557161630E+02    -.25439E-03    -.65217E-06  5441    .494E-03     .712E-04                                     
RMM:   6     -.248557783670E+02    -.62204E-04    -.37689E-06  4893    .448E-03     .315E-04                                     
RMM:   7     -.248557807289E+02    -.23619E-05    -.42866E-07  2715    .299E-03                                                  
   15 T=  3042. E= -.19744632E+02 F= -.24855781E+02 E0= -.24775264E+02  EK=  .51111E+01 SP=  .00E+00 SK=  .00E+00 mag=      1.000
       N       E                     dE             d eps       ncg     rms          rms(c)                                      
DAV:   1     -.248400348724E+02     .15743E-01    -.31142E+00 12624    .104E+01     .874E-03                                     
RMM:   2     -.248543688763E+02    -.14334E-01    -.76905E-02 11845    .214E-01     .480E-03                                     
RMM:   3     -.248551479101E+02    -.77903E-03    -.30817E-03 10042    .320E-02     .385E-03                                     
RMM:   4     -.248549866062E+02     .16130E-03    -.21018E-04  6172    .115E-02     .182E-03                                     
RMM:   5     -.248551319636E+02    -.14536E-03    -.28871E-05  3761    .453E-03     .152E-03                                     
RMM:   6     -.248552482915E+02    -.11633E-03    -.31387E-06  4474    .381E-03     .110E-03                                     
RMM:   7     -.248554687476E+02    -.22046E-03    -.14697E-06  3951    .357E-03     .358E-04                                     
RMM:   8     -.248555780021E+02    -.10925E-03    -.15164E-06  4411    .422E-03     .256E-04                                     
RMM:   9     -.248555828574E+02    -.48553E-05    -.12502E-07  2236    .267E-03                                                  
   16 T=  3042. E= -.19744640E+02 F= -.24855583E+02 E0= -.24775067E+02  EK=  .51109E+01 SP=  .00E+00 SK=  .00E+00 mag=      1.000
       N       E                     dE             d eps       ncg     rms          rms(c)                                      
DAV:   1     -.248452246496E+02     .10353E-01    -.23721E+00 12552    .104E+01     .839E-03                                     
RMM:   2     -.248545603781E+02    -.93357E-02    -.26068E-02 12001    .138E-01     .303E-03                                     
RMM:   3     -.248549086441E+02    -.34827E-03    -.39752E-04  9203    .189E-02     .181E-03                                     
RMM:   4     -.248550221980E+02    -.11355E-03    -.46233E-05  5355    .686E-03     .143E-03                                     
RMM:   5     -.248553164643E+02    -.29427E-03    -.53516E-06  5274    .466E-03     .405E-04                                     
RMM:   6     -.248553640610E+02    -.47597E-04    -.16431E-06  4204    .388E-03     .187E-04                                     
RMM:   7     -.248553701000E+02    -.60390E-05    -.66388E-07  2813    .291E-03                                                  
   17 T=  3041. E= -.19744631E+02 F= -.24855370E+02 E0= -.24774855E+02  EK=  .51107E+01 SP=  .00E+00 SK=  .00E+00 mag=      1.000
       N       E                     dE             d eps       ncg     rms          rms(c)                                      
DAV:   1     -.248474467867E+02     .79173E-02    -.11876E+00 11672    .959E+00     .790E-03                                     
RMM:   2     -.248543659595E+02    -.69192E-02    -.25501E-03 11082    .424E-02     .216E-03                                     
RMM:   3     -.248548834992E+02    -.51754E-03    -.65364E-05  8303    .991E-03     .154E-03                                     
RMM:   4     -.248549900492E+02    -.10655E-03    -.67756E-06  5125    .491E-03     .836E-04                                     
RMM:   5     -.248551391062E+02    -.14906E-03    -.18898E-06  4627    .400E-03     .242E-04                                     
RMM:   6     -.248551635388E+02    -.24433E-04    -.75453E-07  3254    .321E-03                                                  
   18 T=  3041. E= -.19744626E+02 F= -.24855164E+02 E0= -.24774648E+02  EK=  .51105E+01 SP=  .00E+00 SK=  .00E+00 mag=      1.000
       N       E                     dE             d eps       ncg     rms          rms(c)                                      
DAV:   1     -.248164183688E+02     .38721E-01    -.31788E+00 12152    .102E+01     .121E-02                                     
RMM:   2     -.248609885091E+02    -.44570E-01    -.37745E-01 12147    .233E-01     .595E-03                                     
RMM:   3     -.248545806551E+02     .64079E-02    -.47567E-03  9993    .381E-02     .325E-03                                     
RMM:   4     -.248547315715E+02    -.15092E-03    -.24454E-04  5978    .100E-02     .228E-03                                     
RMM:   5     -.248547726179E+02    -.41046E-04    -.16764E-05  3675    .426E-03     .183E-03                                     
RMM:   6     -.248549007905E+02    -.12817E-03    -.24252E-06  4935    .414E-03     .673E-04                                     
RMM:   7     -.248549291169E+02    -.28326E-04    -.59398E-07  3223    .319E-03                                                  
   19 T=  3041. E= -.19744592E+02 F= -.24854929E+02 E0= -.24774414E+02  EK=  .51103E+01 SP=  .00E+00 SK=  .00E+00 mag=      1.000
       N       E                     dE             d eps       ncg     rms          rms(c)                                      
DAV:   1     -.248468638544E+02     .80369E-02    -.28881E+00 12248    .106E+01     .800E-03                                     
RMM:   2     -.248538097987E+02    -.69459E-02    -.40782E-03 11775    .637E-02     .294E-03                                     
RMM:   3     -.248542072479E+02    -.39745E-03    -.93872E-05  8506    .104E-02     .184E-03                                     
RMM:   4     -.248545506609E+02    -.34341E-03    -.11004E-05  5713    .514E-03     .862E-04                                     
RMM:   5     -.248547292763E+02    -.17862E-03    -.40652E-06  5640    .476E-03     .402E-04                                     
RMM:   6     -.248547577152E+02    -.28439E-04    -.10073E-06  3237    .319E-03                                                  
   20 T=  3041. E= -.19744619E+02 F= -.24854758E+02 E0= -.24774244E+02  EK=  .51101E+01 SP=  .00E+00 SK=  .00E+00 mag=      1.000
       N       E                     dE             d eps       ncg     rms          rms(c)                                      
DAV:   1     -.248446397811E+02     .10089E-01    -.30456E+00 13072    .105E+01     .809E-03                                     
RMM:   2     -.248537759210E+02    -.91361E-02    -.24673E-02 12160    .152E-01     .398E-03                                     
RMM:   3     -.248542252439E+02    -.44932E-03    -.49782E-04 10130    .210E-02     .312E-03                                     
RMM:   4     -.248542216621E+02     .35818E-05    -.35131E-05  6109    .808E-03                                                  
   21 T=  3041. E= -.19744278E+02 F= -.24854222E+02 E0= -.24773708E+02  EK=  .51099E+01 SP=  .00E+00 SK=  .00E+00 mag=      1.000
       N       E                     dE             d eps       ncg     rms          rms(c)                                      
DAV:   1     -.248377948752E+02     .16430E-01    -.31778E+00 13032    .106E+01     .110E-02                                     
RMM:   2     -.248530489870E+02    -.15254E-01    -.83575E-02 11878    .235E-01     .510E-03                                     
RMM:   3     -.248534699105E+02    -.42092E-03    -.15492E-03  9968    .311E-02     .316E-03                                     
RMM:   4     -.248537933770E+02    -.32347E-03    -.14111E-04  6085    .100E-02     .225E-03                                     
RMM:   5     -.248542420130E+02    -.44864E-03    -.18999E-05  8129    .716E-03     .157E-03                                     
RMM:   6     -.248543589330E+02    -.11692E-03    -.77622E-06  5164    .544E-03     .416E-04                                     
RMM:   7     -.248543599033E+02    -.97029E-06    -.13710E-06  3533    .365E-03                                                  
   22 T=  3041. E= -.19744610E+02 F= -.24854360E+02 E0= -.24773847E+02  EK=  .51098E+01 SP=  .00E+00 SK=  .00E+00 mag=      1.000
       N       E                     dE             d eps       ncg     rms          rms(c)                                      
DAV:   1     -.248399366128E+02     .14422E-01    -.37103E+00 13448    .104E+01     .993E-03                                     
RMM:   2     -.248528930671E+02    -.12956E-01    -.71688E-02 12585    .183E-01     .324E-03                                     
RMM:   3     -.248536511957E+02    -.75813E-03    -.12625E-03  9261    .230E-02     .296E-03                                     
RMM:   4     -.248538148973E+02    -.16370E-03    -.11741E-04  5146    .827E-03     .186E-03                                     
RMM:   5     -.248540531007E+02    -.23820E-03    -.14365E-05  5828    .533E-03     .668E-04                                     
RMM:   6     -.248541203301E+02    -.67229E-04    -.17316E-06  3961    .366E-03     .394E-04                                     
RMM:   7     -.248541569309E+02    -.36601E-04    -.12857E-06  4125    .354E-03     .248E-04                                     
RMM:   8     -.248541758863E+02    -.18955E-04    -.22791E-06  4252    .404E-03                                                  
   23 T=  3041. E= -.19744620E+02 F= -.24854176E+02 E0= -.24773663E+02  EK=  .51096E+01 SP=  .00E+00 SK=  .00E+00 mag=      1.000
       N       E                     dE             d eps       ncg     rms          rms(c)                                      
DAV:   1     -.248371717558E+02     .16985E-01    -.39641E+00 13064    .116E+01     .115E-02                                     
RMM:   2     -.248529422796E+02    -.15771E-01    -.89709E-02 12063    .258E-01     .514E-03                                     
RMM:   3     -.248531349998E+02    -.19272E-03    -.13360E-03 10049    .311E-02     .293E-03                                     
RMM:   4     -.248532074640E+02    -.72464E-04    -.82306E-05  5606    .948E-03     .219E-03                                     
RMM:   5     -.248537044680E+02    -.49700E-03    -.97292E-06  5907    .542E-03     .666E-04                                     
RMM:   6     -.248539323481E+02    -.22788E-03    -.41119E-06  5356    .496E-03     .353E-04                                     
RMM:   7     -.248539730085E+02    -.40660E-04    -.19083E-06  3832    .381E-03     .200E-04                                     
RMM:   8     -.248539837166E+02    -.10708E-04    -.90486E-07  3395    .348E-03                                                  
   24 T=  3041. E= -.19744621E+02 F= -.24853984E+02 E0= -.24773471E+02  EK=  .51094E+01 SP=  .00E+00 SK=  .00E+00 mag=      1.000
       N       E                     dE             d eps       ncg     rms          rms(c)                                      
DAV:   1     -.248016697856E+02     .52303E-01    -.46116E+00 13544    .119E+01     .167E-02                                     
RMM:   2     -.248654434427E+02    -.63774E-01    -.56904E-01 12601    .280E-01     .769E-03                                     
RMM:   3     -.248535381490E+02     .11905E-01    -.92155E-03 10243    .523E-02     .463E-03                                     
RMM:   4     -.248535947249E+02    -.56576E-04    -.29753E-04  5490    .121E-02     .370E-03                                     
RMM:   5     -.248536189286E+02    -.24204E-04    -.11152E-05  4044    .421E-03                                                  
   25 T=  3040. E= -.19744448E+02 F= -.24853619E+02 E0= -.24773107E+02  EK=  .51092E+01 SP=  .00E+00 SK=  .00E+00 mag=      1.000
       N       E                     dE             d eps       ncg     rms          rms(c)                                      
DAV:   1     -.248448800679E+02     .87147E-02    -.27842E+00 14264    .110E+01     .940E-03                                     
RMM:   2     -.248525330916E+02    -.76530E-02    -.13844E-02 12909    .127E-01     .559E-03                                     
RMM:   3     -.248528106134E+02    -.27752E-03    -.26111E-04  9888    .183E-02     .516E-03                                     
RMM:   4     -.248528706290E+02    -.60016E-04    -.26281E-05  6150    .717E-03     .438E-03                                     
RMM:   5     -.248531275330E+02    -.25690E-03    -.31111E-06  5340    .442E-03     .238E-03                                     
RMM:   6     -.248535636858E+02    -.43615E-03    -.91707E-06  7558    .675E-03     .122E-03                                     
RMM:   7     -.248536083477E+02    -.44662E-04    -.36270E-06  4416    .444E-03     .619E-04                                     
RMM:   8     -.248536031169E+02     .52307E-05    -.13112E-06  3454    .312E-03                                                  
   26 T=  3040. E= -.19744623E+02 F= -.24853603E+02 E0= -.24773092E+02  EK=  .51090E+01 SP=  .00E+00 SK=  .00E+00 mag=      1.000
       N       E                     dE             d eps       ncg     rms          rms(c)                                      
DAV:   1     -.248458406114E+02     .77677E-02    -.26517E+00 12072    .109E+01     .890E-03                                     
RMM:   2     -.248522944802E+02    -.64539E-02    -.95946E-04 12709    .585E-02     .437E-03                                     
RMM:   3     -.248524420497E+02    -.14757E-03    -.22900E-05  9270    .106E-02     .385E-03                                     
RMM:   4     -.248526657379E+02    -.22369E-03    -.48270E-06  6588    .550E-03     .316E-03                                     
RMM:   5     -.248527921791E+02    -.12644E-03    -.83884E-06  5852    .504E-03     .228E-03                                     
RMM:   6     -.248531553036E+02    -.36312E-03    -.11542E-05  5410    .513E-03     .967E-04                                     
RMM:   7     -.248533479030E+02    -.19260E-03    -.59025E-06  5084    .487E-03     .348E-04                                     
RMM:   8     -.248534057929E+02    -.57890E-04    -.60379E-06  4962    .516E-03     .193E-04                                     
RMM:   9     -.248534062399E+02    -.44697E-06    -.52519E-07  2445    .276E-03                                                  
   27 T=  3040. E= -.19744615E+02 F= -.24853406E+02 E0= -.24772895E+02  EK=  .51088E+01 SP=  .00E+00 SK=  .00E+00 mag=      1.000
       N       E                     dE             d eps       ncg     rms          rms(c)                                      
DAV:   1     -.248129485930E+02     .40457E-01    -.16281E+00 12712    .100E+01     .126E-02                                     
RMM:   2     -.248550097732E+02    -.42061E-01    -.35444E-01 11930    .133E-01     .503E-03                                     
RMM:   3     -.248529173284E+02     .20924E-02    -.56759E-03  9952    .310E-02     .387E-03                                     
RMM:   4     -.248528548475E+02     .62481E-04    -.97231E-05  6352    .856E-03     .292E-03                                     
RMM:   5     -.248529626589E+02    -.10781E-03    -.49413E-06  3537    .341E-03     .233E-03                                     
RMM:   6     -.248530971090E+02    -.13445E-03    -.19496E-06  4884    .410E-03     .118E-03                                     
RMM:   7     -.248531636433E+02    -.66534E-04    -.24759E-06  5385    .465E-03     .524E-04                                     
RMM:   8     -.248531915903E+02    -.27947E-04    -.14529E-06  3160    .322E-03                                                  
   28 T=  3040. E= -.19744588E+02 F= -.24853192E+02 E0= -.24772681E+02  EK=  .51086E+01 SP=  .00E+00 SK=  .00E+00 mag=      1.000
       N       E                     dE             d eps       ncg     rms          rms(c)                                      
DAV:   1     -.248452701710E+02     .78935E-02    -.11639E+00 12808    .101E+01     .800E-03                                     
RMM:   2     -.248519112126E+02    -.66410E-02    -.28573E-03 12101    .611E-02     .510E-03                                     
RMM:   3     -.248522952197E+02    -.38401E-03    -.64960E-05  9230    .103E-02     .252E-03                                     
RMM:   4     -.248527686195E+02    -.47340E-03    -.84877E-06  6331    .594E-03     .963E-04                                     
RMM:   5     -.248529810243E+02    -.21240E-03    -.13752E-05  6131    .774E-03     .465E-04                                     
RMM:   6     -.248530047496E+02    -.23725E-04    -.96281E-06  4854    .566E-03                                                  
   29 T=  3040. E= -.19744587E+02 F= -.24853005E+02 E0= -.24772495E+02  EK=  .51084E+01 SP=  .00E+00 SK=  .00E+00 mag=      1.000
       N       E                     dE             d eps       ncg     rms          rms(c)                                      
DAV:   1     -.248449299640E+02     .80511E-02    -.26268E+00 12944    .110E+01     .790E-03                                     
RMM:   2     -.248521016617E+02    -.71717E-02    -.56483E-03 12359    .746E-02     .356E-03                                     
RMM:   3     -.248523308396E+02    -.22918E-03    -.10887E-04  9327    .140E-02     .245E-03                                     
RMM:   4     -.248524018802E+02    -.71041E-04    -.80531E-06  5305    .493E-03     .177E-03                                     
RMM:   5     -.248527431127E+02    -.34123E-03    -.38820E-06  5978    .503E-03     .707E-04                                     
RMM:   6     -.248528229980E+02    -.79885E-04    -.28749E-06  4452    .444E-03     .414E-04                                     
RMM:   7     -.248528359331E+02    -.12935E-04    -.15310E-06  4024    .377E-03                                                  
   30 T=  3040. E= -.19744604E+02 F= -.24852836E+02 E0= -.24772326E+02  EK=  .51082E+01 SP=  .00E+00 SK=  .00E+00 mag=      1.000
       N       E                     dE             d eps       ncg     rms          rms(c)                                      
DAV:   1     -.248425393089E+02     .10284E-01    -.35090E+00 12712    .112E+01     .831E-03                                     
RMM:   2     -.248519105939E+02    -.93713E-02    -.26608E-02 11960    .149E-01     .348E-03                                     
RMM:   3     -.248523202114E+02    -.40962E-03    -.31362E-04  9576    .193E-02     .182E-03                                     
RMM:   4     -.248524754390E+02    -.15523E-03    -.17733E-05  5181    .650E-03     .122E-03                                     
RMM:   5     -.248526389506E+02    -.16351E-03    -.12822E-05  6388    .737E-03     .319E-04                                     
RMM:   6     -.248526499765E+02    -.11026E-04    -.18209E-06  3404    .342E-03                                                  
   31 T=  3040. E= -.19744604E+02 F= -.24852650E+02 E0= -.24772141E+02  EK=  .51080E+01 SP=  .00E+00 SK=  .00E+00 mag=      1.000
       N       E                     dE             d eps       ncg     rms          rms(c)                                      
DAV:   1     -.248436999187E+02     .89390E-02    -.11103E+00 13584    .937E+00     .824E-03                                     
RMM:   2     -.248517508267E+02    -.80509E-02    -.13936E-02 12300    .117E-01     .261E-03                                     
RMM:   3     -.248522711155E+02    -.52029E-03    -.17352E-04  9143    .160E-02     .143E-03                                     
RMM:   4     -.248522520365E+02     .19079E-04    -.15282E-05  6121    .702E-03                                                  
   32 T=  3040. E= -.19744390E+02 F= -.24852252E+02 E0= -.24771743E+02  EK=  .51079E+01 SP=  .00E+00 SK=  .00E+00 mag=       .999
       N       E                     dE             d eps       ncg     rms          rms(c)                                      
DAV:   1     -.248412699073E+02     .11001E-01    -.18321E+00 13040    .919E+00     .888E-03                                     
RMM:   2     -.248512564468E+02    -.99865E-02    -.34180E-02 11759    .138E-01     .340E-03                                     
RMM:   3     -.248518676475E+02    -.61120E-03    -.44714E-04  9649    .180E-02     .177E-03                                     
RMM:   4     -.248520654101E+02    -.19776E-03    -.31098E-05  5250    .646E-03     .118E-03                                     
RMM:   5     -.248522407414E+02    -.17533E-03    -.14687E-05  6036    .747E-03     .416E-04                                     
RMM:   6     -.248522767101E+02    -.35969E-04    -.68548E-06  4655    .495E-03     .209E-04                                     
RMM:   7     -.248522831208E+02    -.64107E-05    -.38049E-06  4316    .389E-03                                                  
   33 T=  3040. E= -.19744605E+02 F= -.24852283E+02 E0= -.24771775E+02  EK=  .51077E+01 SP=  .00E+00 SK=  .00E+00 mag=       .999
       N       E                     dE             d eps       ncg     rms          rms(c)                                      
DAV:   1     -.248433760654E+02     .89006E-02    -.21081E+00 13496    .957E+00     .792E-03                                     
RMM:   2     -.248513237329E+02    -.79477E-02    -.15847E-02 12692    .990E-02     .230E-03                                     
RMM:   3     -.248517788633E+02    -.45513E-03    -.23719E-04  8360    .146E-02     .145E-03                                     
RMM:   4     -.248519732479E+02    -.19438E-03    -.21958E-05  6069    .646E-03     .739E-04                                     
RMM:   5     -.248520710781E+02    -.97830E-04    -.10447E-05  5673    .600E-03     .379E-04                                     
RMM:   6     -.248520865678E+02    -.15490E-04    -.25213E-06  4167    .430E-03                                                  
   34 T=  3039. E= -.19744592E+02 F= -.24852087E+02 E0= -.24771579E+02  EK=  .51075E+01 SP=  .00E+00 SK=  .00E+00 mag=       .999
       N       E                     dE             d eps       ncg     rms          rms(c)                                      
DAV:   1     -.248441583083E+02     .79128E-02    -.22403E+00 12832    .103E+01     .793E-03                                     
RMM:   2     -.248511520066E+02    -.69937E-02    -.32716E-03 11998    .685E-02     .236E-03                                     
RMM:   3     -.248515672112E+02    -.41520E-03    -.50144E-05  8733    .121E-02     .150E-03                                     
RMM:   4     -.248517300778E+02    -.16287E-03    -.10244E-05  6094    .607E-03     .951E-04                                     
RMM:   5     -.248518205044E+02    -.90427E-04    -.85976E-06  5510    .537E-03     .382E-04                                     
RMM:   6     -.248518863914E+02    -.65887E-04    -.20625E-05  5608    .705E-03     .211E-04                                     
RMM:   7     -.248519083943E+02    -.22003E-04    -.35990E-06  4168    .477E-03                                                  
   35 T=  3039. E= -.19744597E+02 F= -.24851908E+02 E0= -.24771401E+02  EK=  .51073E+01 SP=  .00E+00 SK=  .00E+00 mag=       .999
       N       E                     dE             d eps       ncg     rms          rms(c)                                      
DAV:   1     -.248393212450E+02     .12565E-01    -.19613E+00 14224    .887E+00     .899E-03                                     
RMM:   2     -.248510183971E+02    -.11697E-01    -.50614E-02 12241    .176E-01     .310E-03                                     
RMM:   3     -.248516028946E+02    -.58450E-03    -.63607E-04  8796    .239E-02     .173E-03                                     
RMM:   4     -.248515798194E+02     .23075E-04    -.45091E-05  6144    .910E-03                                                  
   36 T=  3039. E= -.19744452E+02 F= -.24851580E+02 E0= -.24771073E+02  EK=  .51071E+01 SP=  .00E+00 SK=  .00E+00 mag=       .999
       N       E                     dE             d eps       ncg     rms          rms(c)                                      
DAV:   1     -.248437289422E+02     .78740E-02    -.21529E+00 13288    .100E+01     .826E-03                                     
RMM:   2     -.248506375764E+02    -.69086E-02    -.31681E-03 12079    .627E-02     .277E-03                                     
RMM:   3     -.248510801516E+02    -.44258E-03    -.47986E-05  8625    .108E-02     .160E-03                                     
RMM:   4     -.248512967319E+02    -.21658E-03    -.16067E-05  6381    .760E-03     .649E-04                                     
RMM:   5     -.248514578546E+02    -.16112E-03    -.11869E-05  6017    .671E-03     .320E-04                                     
RMM:   6     -.248515231483E+02    -.65294E-04    -.19302E-05  5397    .675E-03     .189E-04                                     
RMM:   7     -.248515345013E+02    -.11353E-04    -.15722E-05  4726    .581E-03                                                  
   37 T=  3039. E= -.19744589E+02 F= -.24851535E+02 E0= -.24771028E+02  EK=  .51069E+01 SP=  .00E+00 SK=  .00E+00 mag=       .999
       N       E                     dE             d eps       ncg     rms          rms(c)                                      
DAV:   1     -.248426779701E+02     .88452E-02    -.29184E+00 14600    .122E+01     .801E-03                                     
RMM:   2     -.248506956145E+02    -.80176E-02    -.15316E-02 13250    .128E-01     .253E-03                                     
RMM:   3     -.248511547876E+02    -.45917E-03    -.32061E-04  9278    .204E-02     .209E-03                                     
RMM:   4     -.248512673817E+02    -.11259E-03    -.35051E-05  6147    .729E-03     .131E-03                                     
RMM:   5     -.248513362506E+02    -.68869E-04    -.22079E-05  5987    .700E-03     .445E-04                                     
RMM:   6     -.248513660436E+02    -.29793E-04    -.97270E-06  5220    .668E-03                                                  
   38 T=  3039. E= -.19744603E+02 F= -.24851366E+02 E0= -.24770859E+02  EK=  .51068E+01 SP=  .00E+00 SK=  .00E+00 mag=       .999
       N       E                     dE             d eps       ncg     rms          rms(c)                                      
DAV:   1     -.248416640787E+02     .96722E-02    -.27511E+00 14328    .119E+01     .831E-03                                     
RMM:   2     -.248506434962E+02    -.89794E-02    -.23634E-02 12955    .151E-01     .260E-03                                     
RMM:   3     -.248510728991E+02    -.42940E-03    -.28905E-04  9161    .195E-02     .127E-03                                     
RMM:   4     -.248511581952E+02    -.85296E-04    -.32516E-05  6433    .873E-03     .857E-04                                     
RMM:   5     -.248511722913E+02    -.14096E-04    -.74877E-06  5507    .559E-03                                                  
   39 T=  3039. E= -.19744593E+02 F= -.24851172E+02 E0= -.24770666E+02  EK=  .51066E+01 SP=  .00E+00 SK=  .00E+00 mag=       .999
       N       E                     dE             d eps       ncg     rms          rms(c)                                      
DAV:   1     -.248398139042E+02     .11344E-01    -.11935E+00 13616    .929E+00     .820E-03                                     
RMM:   2     -.248499341705E+02    -.10120E-01    -.38229E-02 12621    .146E-01     .207E-03                                     
RMM:   3     -.248506683895E+02    -.73422E-03    -.98760E-04  8874    .226E-02     .117E-03                                     
RMM:   4     -.248508589978E+02    -.19061E-03    -.12004E-04  6213    .936E-03     .685E-04                                     
RMM:   5     -.248509664650E+02    -.10747E-03    -.47279E-05  6441    .948E-03     .302E-04                                     
RMM:   6     -.248509888780E+02    -.22413E-04    -.26686E-05  5428    .800E-03                                                  
   40 T=  3039. E= -.19744592E+02 F= -.24850989E+02 E0= -.24770483E+02  EK=  .51064E+01 SP=  .00E+00 SK=  .00E+00 mag=       .999
       N       E                     dE             d eps       ncg     rms          rms(c)                                      
DAV:   1     -.248434040897E+02     .75624E-02    -.25462E+00 13400    .991E+00     .790E-03                                     
RMM:   2     -.248500200314E+02    -.66159E-02    -.18136E-03 12053    .468E-02     .215E-03                                     
RMM:   3     -.248506035473E+02    -.58352E-03    -.42667E-05  8261    .120E-02     .121E-03                                     
RMM:   4     -.248507072762E+02    -.10373E-03    -.15445E-05  5947    .677E-03     .563E-04                                     
RMM:   5     -.248507642514E+02    -.56975E-04    -.10038E-05  5233    .574E-03     .239E-04                                     
RMM:   6     -.248507982711E+02    -.34020E-04    -.28902E-05  5671    .828E-03     .160E-04                                     
RMM:   7     -.248507992172E+02    -.94611E-06    -.82650E-06  4541    .497E-03                                                  
   41 T=  3039. E= -.19744586E+02 F= -.24850799E+02 E0= -.24770293E+02  EK=  .51062E+01 SP=  .00E+00 SK=  .00E+00 mag=       .998
       N       E                     dE             d eps       ncg     rms          rms(c)                                      
DAV:   1     -.248389563780E+02     .11842E-01    -.10194E+00 14160    .901E+00     .906E-03                                     
RMM:   2     -.248500787871E+02    -.11122E-01    -.45619E-02 12568    .135E-01     .244E-03                                     
RMM:   3     -.248505287477E+02    -.44996E-03    -.53611E-04  8599    .185E-02     .151E-03                                     
RMM:   4     -.248505718210E+02    -.43073E-04    -.32446E-05  5542    .713E-03     .111E-03                                     
RMM:   5     -.248505451098E+02     .26711E-04    -.14443E-05  5412    .560E-03                                                  
   42 T=  3039. E= -.19744517E+02 F= -.24850545E+02 E0= -.24770040E+02  EK=  .51060E+01 SP=  .00E+00 SK=  .00E+00 mag=       .998
       N       E                     dE             d eps       ncg     rms          rms(c)                                      
DAV:   1     -.248409483227E+02     .96235E-02    -.20521E+00 13368    .946E+00     .806E-03                                     
RMM:   2     -.248493399833E+02    -.83917E-02    -.19699E-02 11990    .100E-01     .276E-03                                     
RMM:   3     -.248498853402E+02    -.54536E-03    -.65122E-04  8654    .161E-02     .141E-03                                     
RMM:   4     -.248501980578E+02    -.31272E-03    -.55509E-05  6550    .921E-03     .832E-04                                     
RMM:   5     -.248504114306E+02    -.21337E-03    -.13457E-04  6952    .144E-02     .309E-04                                     
RMM:   6     -.248504308883E+02    -.19458E-04    -.29529E-05  5256    .826E-03                                                  
   43 T=  3038. E= -.19744588E+02 F= -.24850431E+02 E0= -.24769925E+02  EK=  .51058E+01 SP=  .00E+00 SK=  .00E+00 mag=       .998
       N       E                     dE             d eps       ncg     rms          rms(c)                                      
DAV:   1     -.248416438204E+02     .87676E-02    -.10780E+00 14232    .101E+01     .819E-03                                     
RMM:   2     -.248496993534E+02    -.80555E-02    -.19537E-02 12819    .143E-01     .244E-03                                     
RMM:   3     -.248500982266E+02    -.39887E-03    -.35259E-04  9055    .215E-02     .162E-03                                     
RMM:   4     -.248502177029E+02    -.11948E-03    -.34883E-05  5587    .742E-03     .113E-03                                     
RMM:   5     -.248502452261E+02    -.27523E-04    -.90264E-06  5241    .549E-03                                                  
   44 T=  3038. E= -.19744586E+02 F= -.24850245E+02 E0= -.24769740E+02  EK=  .51057E+01 SP=  .00E+00 SK=  .00E+00 mag=       .998
       N       E                     dE             d eps       ncg     rms          rms(c)                                      
DAV:   1     -.248423051419E+02     .79126E-02    -.90390E-01 14048    .938E+00     .795E-03                                     
RMM:   2     -.248496004527E+02    -.72953E-02    -.97226E-03 12661    .103E-01     .218E-03                                     
RMM:   3     -.248499486298E+02    -.34818E-03    -.17687E-04  9158    .176E-02     .130E-03                                     
RMM:   4     -.248500406809E+02    -.92051E-04    -.27616E-05  6253    .832E-03     .650E-04                                     
RMM:   5     -.248500501214E+02    -.94405E-05    -.30467E-06  4950    .471E-03                                                  
   45 T=  3038. E= -.19744579E+02 F= -.24850050E+02 E0= -.24769545E+02  EK=  .51055E+01 SP=  .00E+00 SK=  .00E+00 mag=       .998
       N       E                     dE             d eps       ncg     rms          rms(c)                                      
DAV:   1     -.248422956087E+02     .77451E-02    -.19254E+00 13984    .932E+00     .788E-03                                     
RMM:   2     -.248494811121E+02    -.71855E-02    -.70464E-03 12438    .800E-02     .268E-03                                     
RMM:   3     -.248495602278E+02    -.79116E-04    -.33178E-04  9862    .259E-02     .124E-03                                     
RMM:   4     -.248497089294E+02    -.14870E-03    -.25701E-05  6435    .761E-03     .771E-04                                     
RMM:   5     -.248498460975E+02    -.13717E-03    -.12402E-04  6833    .142E-02     .411E-04                                     
RMM:   6     -.248498508065E+02    -.47090E-05    -.94638E-06  4926    .620E-03                                                  
   46 T=  3038. E= -.19744567E+02 F= -.24849851E+02 E0= -.24769346E+02  EK=  .51053E+01 SP=  .00E+00 SK=  .00E+00 mag=       .997
       N       E                     dE             d eps       ncg     rms          rms(c)                                      
DAV:   1     -.248403280382E+02     .95181E-02    -.38182E+00 14008    .116E+01     .809E-03                                     
RMM:   2     -.248488989706E+02    -.85709E-02    -.20107E-02 12922    .136E-01     .237E-03                                     
RMM:   3     -.248493998642E+02    -.50089E-03    -.73155E-04  9339    .235E-02     .117E-03                                     
RMM:   4     -.248495835372E+02    -.18367E-03    -.92015E-05  7090    .123E-02     .766E-04                                     
RMM:   5     -.248496652893E+02    -.81752E-04    -.57187E-05  6305    .102E-02     .278E-04                                     
RMM:   6     -.248496681244E+02    -.28351E-05    -.41941E-06  4111    .392E-03                                                  
   47 T=  3038. E= -.19744571E+02 F= -.24849668E+02 E0= -.24769163E+02  EK=  .51051E+01 SP=  .00E+00 SK=  .00E+00 mag=       .997
       N       E                     dE             d eps       ncg     rms          rms(c)                                      
DAV:   1     -.248425669216E+02     .70984E-02    -.12612E+00 14576    .979E+00     .783E-03                                     
RMM:   2     -.248491605171E+02    -.65936E-02    -.49135E-03 12793    .873E-02     .244E-03                                     
RMM:   3     -.248494215818E+02    -.26106E-03    -.76414E-05  8895    .135E-02     .148E-03                                     
RMM:   4     -.248494763563E+02    -.54774E-04    -.31343E-05  6258    .818E-03     .968E-04                                     
RMM:   5     -.248494793891E+02    -.30328E-05    -.13492E-06  3990    .368E-03                                                  
   48 T=  3038. E= -.19744571E+02 F= -.24849479E+02 E0= -.24768974E+02  EK=  .51049E+01 SP=  .00E+00 SK=  .00E+00 mag=       .997
       N       E                     dE             d eps       ncg     rms          rms(c)                                      
DAV:   1     -.248392085678E+02     .10268E-01    -.24953E+00 14040    .976E+00     .839E-03                                     
RMM:   2     -.248488844489E+02    -.96759E-02    -.35883E-02 12797    .140E-01     .258E-03                                     
RMM:   3     -.248492471901E+02    -.36274E-03    -.12466E-03  9007    .221E-02     .149E-03                                     
RMM:   4     -.248492717402E+02    -.24550E-04    -.80145E-05  5668    .756E-03                                                  
   49 T=  3038. E= -.19744552E+02 F= -.24849272E+02 E0= -.24768767E+02  EK=  .51047E+01 SP=  .00E+00 SK=  .00E+00 mag=       .997
       N       E                     dE             d eps       ncg     rms          rms(c)                                      
DAV:   1     -.248416019576E+02     .76452E-02    -.12989E+00 14456    .995E+00     .831E-03                                     
RMM:   2     -.248479853706E+02    -.63834E-02    -.59092E-03 12916    .887E-02     .262E-03                                     
RMM:   3     -.248485653993E+02    -.58003E-03    -.12690E-04  8920    .135E-02     .162E-03                                     
RMM:   4     -.248490359598E+02    -.47056E-03    -.21989E-04  7888    .200E-02     .714E-04                                     
RMM:   5     -.248490929320E+02    -.56972E-04    -.28878E-05  5869    .811E-03     .322E-04                                     
RMM:   6     -.248490989216E+02    -.59896E-05    -.29059E-06  4078    .382E-03                                                  
   50 T=  3038. E= -.19744568E+02 F= -.24849099E+02 E0= -.24768594E+02  EK=  .51045E+01 SP=  .00E+00 SK=  .00E+00 mag=       .997
       N       E                     dE             d eps       ncg     rms          rms(c)                                      
DAV:   1     -.248423358481E+02     .67571E-02    -.18464E+00 14048    .967E+00     .755E-03                                     
RMM:   2     -.248483718490E+02    -.60360E-02    -.15003E-03 12726    .593E-02     .213E-03                                     
RMM:   3     -.248487929316E+02    -.42108E-03    -.10740E-04  8942    .165E-02     .116E-03                                     
RMM:   4     -.248488617536E+02    -.68822E-04    -.37769E-05  6283    .810E-03     .773E-04                                     
RMM:   5     -.248488940165E+02    -.32263E-04    -.25966E-05  5467    .576E-03     .359E-04                                     
RMM:   6     -.248489010299E+02    -.70134E-05    -.22691E-06  3223    .300E-03                                                  
   51 T=  3038. E= -.19744560E+02 F= -.24848901E+02 E0= -.24768396E+02  EK=  .51043E+01 SP=  .00E+00 SK=  .00E+00 mag=       .996
       N       E                     dE             d eps       ncg     rms          rms(c)                                      
DAV:   1     -.248419700223E+02     .69240E-02    -.10742E+00 14160    .895E+00     .811E-03                                     
RMM:   2     -.248484711943E+02    -.65012E-02    -.49661E-03 12783    .747E-02     .217E-03                                     
RMM:   3     -.248486649172E+02    -.19372E-03    -.83155E-05  8626    .121E-02     .119E-03                                     
RMM:   4     -.248486919250E+02    -.27008E-04    -.11733E-05  5406    .566E-03                                                  
   52 T=  3037. E= -.19744542E+02 F= -.24848692E+02 E0= -.24768187E+02  EK=  .51042E+01 SP=  .00E+00 SK=  .00E+00 mag=       .996
       N       E                     dE             d eps       ncg     rms          rms(c)                                      
DAV:   1     -.248419031961E+02     .67617E-02    -.18874E+00 14312    .996E+00     .806E-03                                     
RMM:   2     -.248483556731E+02    -.64525E-02    -.84405E-03 12929    .974E-02     .244E-03                                     
RMM:   3     -.248484529864E+02    -.97313E-04    -.19222E-04  9230    .144E-02     .139E-03                                     
RMM:   4     -.248485033460E+02    -.50360E-04    -.36025E-05  6199    .720E-03     .718E-04                                     
RMM:   5     -.248485176945E+02    -.14348E-04    -.33873E-06  4977    .421E-03                                                  
   53 T=  3037. E= -.19744558E+02 F= -.24848518E+02 E0= -.24768012E+02  EK=  .51040E+01 SP=  .00E+00 SK=  .00E+00 mag=       .996
       N       E                     dE             d eps       ncg     rms          rms(c)                                      
DAV:   1     -.248402668316E+02     .82365E-02    -.32345E+00 15208    .117E+01     .788E-03                                     
RMM:   2     -.248479512966E+02    -.76845E-02    -.16995E-02 13495    .133E-01     .311E-03                                     
RMM:   3     -.248482852819E+02    -.33399E-03    -.26908E-04  9816    .199E-02     .128E-03                                     
RMM:   4     -.248483109549E+02    -.25673E-04    -.22296E-05  6226    .680E-03                                                  
   54 T=  3037. E= -.19744542E+02 F= -.24848311E+02 E0= -.24767805E+02  EK=  .51038E+01 SP=  .00E+00 SK=  .00E+00 mag=       .995
       N       E                     dE             d eps       ncg     rms          rms(c)                                      
DAV:   1     -.248379420526E+02     .10343E-01    -.16785E+00 15216    .112E+01     .863E-03                                     
RMM:   2     -.248477961337E+02    -.98541E-02    -.40820E-02 13170    .216E-01     .288E-03                                     
RMM:   3     -.248480946037E+02    -.29847E-03    -.66046E-04  9725    .291E-02     .144E-03                                     
RMM:   4     -.248481198432E+02    -.25240E-04    -.43608E-05  6157    .865E-03                                                  
   55 T=  3037. E= -.19744543E+02 F= -.24848120E+02 E0= -.24767614E+02  EK=  .51036E+01 SP=  .00E+00 SK=  .00E+00 mag=       .995
       N       E                     dE             d eps       ncg     rms          rms(c)                                      
DAV:   1     -.248421772986E+02     .59173E-02    -.33705E+00 14360    .115E+01     .789E-03                                     
RMM:   2     -.248477638194E+02    -.55865E-02    -.29761E-03 13332    .758E-02     .190E-03                                     
RMM:   3     -.248479042513E+02    -.14043E-03    -.87320E-05  9101    .138E-02     .135E-03                                     
RMM:   4     -.248479141796E+02    -.99283E-05    -.65587E-06  5703    .511E-03                                                  
   56 T=  3037. E= -.19744528E+02 F= -.24847914E+02 E0= -.24767408E+02  EK=  .51034E+01 SP=  .00E+00 SK=  .00E+00 mag=       .994
       N       E                     dE             d eps       ncg     rms          rms(c)                                      
DAV:   1     -.248387606094E+02     .91436E-02    -.14112E+00 16232    .116E+01     .851E-03                                     
RMM:   2     -.248475035473E+02    -.87429E-02    -.34638E-02 13738    .210E-01     .348E-03                                     
RMM:   3     -.248476580441E+02    -.15450E-03    -.62014E-04 10592    .268E-02     .162E-03                                     
RMM:   4     -.248476752098E+02    -.17166E-04    -.41050E-05  5750    .776E-03                                                  
   57 T=  3037. E= -.19744478E+02 F= -.24847675E+02 E0= -.24767169E+02  EK=  .51032E+01 SP=  .00E+00 SK=  .00E+00 mag=       .994
       N       E                     dE             d eps       ncg     rms          rms(c)                                      
DAV:   1     -.248411073580E+02     .65507E-02    -.26173E+00 15184    .109E+01     .811E-03                                     
RMM:   2     -.248472637526E+02    -.61564E-02    -.96397E-03 13313    .114E-01     .201E-03                                     
RMM:   3     -.248474971627E+02    -.23341E-03    -.25251E-04  9495    .199E-02     .132E-03                                     
RMM:   4     -.248475212439E+02    -.24081E-04    -.11089E-05  5919    .592E-03                                                  
   58 T=  3037. E= -.19744513E+02 F= -.24847521E+02 E0= -.24767014E+02  EK=  .51030E+01 SP=  .00E+00 SK=  .00E+00 mag=       .994
       N       E                     dE             d eps       ncg     rms          rms(c)                                      
DAV:   1     -.248390505090E+02     .84467E-02    -.21668E+00 15384    .111E+01     .820E-03                                     
RMM:   2     -.248470672738E+02    -.80168E-02    -.26753E-02 13772    .182E-01     .246E-03                                     
RMM:   3     -.248473098630E+02    -.24259E-03    -.44602E-04 10079    .254E-02     .142E-03                                     
RMM:   4     -.248473344035E+02    -.24540E-04    -.35155E-05  6282    .770E-03                                                  
   59 T=  3037. E= -.19744515E+02 F= -.24847334E+02 E0= -.24766827E+02  EK=  .51028E+01 SP=  .00E+00 SK=  .00E+00 mag=       .993
       N       E                     dE             d eps       ncg     rms          rms(c)                                      
DAV:   1     -.248377348111E+02     .95751E-02    -.18398E+00 15192    .106E+01     .861E-03                                     
RMM:   2     -.248467728493E+02    -.90380E-02    -.38190E-02 13448    .141E-01     .250E-03                                     
RMM:   3     -.248471106704E+02    -.33782E-03    -.17995E-03  9725    .233E-02     .191E-03                                     
RMM:   4     -.248471165756E+02    -.59052E-05    -.60514E-05  5804    .679E-03                                                  
   60 T=  3037. E= -.19744482E+02 F= -.24847117E+02 E0= -.24766608E+02  EK=  .51026E+01 SP=  .00E+00 SK=  .00E+00 mag=       .993
       N       E                     dE             d eps       ncg     rms          rms(c)                                      
DAV:   1     -.248383082391E+02     .88024E-02    -.75491E-01 15824    .977E+00     .873E-03                                     
RMM:   2     -.248466899627E+02    -.83817E-02    -.34178E-02 13652    .193E-01     .258E-03                                     
RMM:   3     -.248469004639E+02    -.21050E-03    -.51493E-04 10183    .245E-02     .149E-03                                     
RMM:   4     -.248469176598E+02    -.17196E-04    -.46967E-05  6360    .755E-03                                                  
   61 T=  3036. E= -.19744463E+02 F= -.24846918E+02 E0= -.24766408E+02  EK=  .51025E+01 SP=  .00E+00 SK=  .00E+00 mag=       .992
       N       E                     dE             d eps       ncg     rms          rms(c)                                      
DAV:   1     -.248396171255E+02     .72833E-02    -.17569E+00 15288    .916E+00     .879E-03                                     
RMM:   2     -.248465518197E+02    -.69347E-02    -.24104E-02 13179    .164E-01     .259E-03                                     
RMM:   3     -.248467175490E+02    -.16573E-03    -.46052E-04  9490    .235E-02     .165E-03                                     
RMM:   4     -.248467410615E+02    -.23512E-04    -.47071E-05  6038    .733E-03                                                  
   62 T=  3036. E= -.19744465E+02 F= -.24846741E+02 E0= -.24766231E+02  EK=  .51023E+01 SP=  .00E+00 SK=  .00E+00 mag=       .992
       N       E                     dE             d eps       ncg     rms          rms(c)                                      
DAV:   1     -.248394180845E+02     .72995E-02    -.15050E+00 15192    .900E+00     .836E-03                                     
RMM:   2     -.248464043604E+02    -.69863E-02    -.24076E-02 13240    .122E-01     .214E-03                                     
RMM:   3     -.248465478612E+02    -.14350E-03    -.68059E-04  9001    .159E-02     .121E-03                                     
RMM:   4     -.248465689391E+02    -.21078E-04    -.27875E-05  5480    .543E-03                                                  
   63 T=  3036. E= -.19744472E+02 F= -.24846569E+02 E0= -.24766058E+02  EK=  .51021E+01 SP=  .00E+00 SK=  .00E+00 mag=       .991
       N       E                     dE             d eps       ncg     rms          rms(c)                                      
DAV:   1     -.248416551823E+02     .48927E-02    -.16796E+00 14736    .106E+01     .809E-03                                     
RMM:   2     -.248462934610E+02    -.46383E-02    -.40940E-03 13266    .916E-02     .217E-03                                     
RMM:   3     -.248463819544E+02    -.88493E-04    -.89064E-05  9253    .132E-02     .154E-03                                     
RMM:   4     -.248464005398E+02    -.18585E-04    -.69712E-06  5735    .498E-03                                                  
   64 T=  3036. E= -.19744479E+02 F= -.24846401E+02 E0= -.24765889E+02  EK=  .51019E+01 SP=  .00E+00 SK=  .00E+00 mag=       .990
       N       E                     dE             d eps       ncg     rms          rms(c)                                      
DAV:   1     -.248411403479E+02     .52416E-02    -.27718E+00 15152    .112E+01     .847E-03                                     
RMM:   2     -.248461029053E+02    -.49626E-02    -.10397E-02 13479    .134E-01     .305E-03                                     
RMM:   3     -.248461868716E+02    -.83966E-04    -.16954E-04  9739    .160E-02     .154E-03                                     
RMM:   4     -.248462207034E+02    -.33832E-04    -.12955E-05  6131    .622E-03     .901E-04                                     
RMM:   5     -.248462327544E+02    -.12051E-04    -.34492E-06  5129    .437E-03                                                  
   65 T=  3036. E= -.19744484E+02 F= -.24846233E+02 E0= -.24765720E+02  EK=  .51017E+01 SP=  .00E+00 SK=  .00E+00 mag=       .990
       N       E                     dE             d eps       ncg     rms          rms(c)                                      
DAV:   1     -.248405166513E+02     .57041E-02    -.26688E+00 15504    .115E+01     .829E-03                                     
RMM:   2     -.248458901036E+02    -.53735E-02    -.15403E-02 13769    .163E-01     .219E-03                                     
RMM:   3     -.248460362955E+02    -.14619E-03    -.36095E-04  9667    .231E-02     .117E-03                                     
RMM:   4     -.248460505170E+02    -.14221E-04    -.33149E-05  6011    .679E-03                                                  
   66 T=  3036. E= -.19744470E+02 F= -.24846051E+02 E0= -.24765537E+02  EK=  .51016E+01 SP=  .00E+00 SK=  .00E+00 mag=       .989
       N       E                     dE             d eps       ncg     rms          rms(c)                                      
DAV:   1     -.248410931488E+02     .49431E-02    -.20537E+00 15320    .110E+01     .856E-03                                     
RMM:   2     -.248457682740E+02    -.46751E-02    -.72798E-03 13662    .126E-01     .268E-03                                     
RMM:   3     -.248458265396E+02    -.58266E-04    -.11014E-04  9637    .145E-02     .139E-03                                     
RMM:   4     -.248458603669E+02    -.33827E-04    -.88118E-06  5838    .541E-03     .866E-04                                     
RMM:   5     -.248458906447E+02    -.30278E-04    -.96330E-06  5789    .566E-03     .384E-04                                     
RMM:   6     -.248458939820E+02    -.33373E-05    -.16141E-06  3801    .365E-03                                                  
   67 T=  3036. E= -.19744477E+02 F= -.24845894E+02 E0= -.24765379E+02  EK=  .51014E+01 SP=  .00E+00 SK=  .00E+00 mag=       .988
       N       E                     dE             d eps       ncg     rms          rms(c)                                      
DAV:   1     -.248404328139E+02     .54578E-02    -.17198E+00 15424    .106E+01     .835E-03                                     
RMM:   2     -.248456295594E+02    -.51967E-02    -.19174E-02 13537    .172E-01     .231E-03                                     
RMM:   3     -.248456968181E+02    -.67259E-04    -.23989E-04  9479    .175E-02     .127E-03                                     
RMM:   4     -.248457276160E+02    -.30798E-04    -.22215E-05  6240    .690E-03     .737E-04                                     
RMM:   5     -.248457346994E+02    -.70834E-05    -.38358E-06  5191    .450E-03                                                  
   68 T=  3036. E= -.19744474E+02 F= -.24845735E+02 E0= -.24765218E+02  EK=  .51013E+01 SP=  .00E+00 SK=  .00E+00 mag=       .988
       N       E                     dE             d eps       ncg     rms          rms(c)                                      
DAV:   1     -.248400965810E+02     .56310E-02    -.18953E+00 15008    .108E+01     .895E-03                                     
RMM:   2     -.248455044500E+02    -.54079E-02    -.22928E-02 13399    .154E-01     .227E-03                                     
RMM:   3     -.248455648582E+02    -.60408E-04    -.33510E-04  9009    .156E-02     .131E-03                                     
RMM:   4     -.248455786590E+02    -.13801E-04    -.24030E-05  5198    .581E-03                                                  
   69 T=  3036. E= -.19744465E+02 F= -.24845579E+02 E0= -.24765061E+02  EK=  .51011E+01 SP=  .00E+00 SK=  .00E+00 mag=       .987
       N       E                     dE             d eps       ncg     rms          rms(c)                                      
DAV:   1     -.248383085828E+02     .72563E-02    -.41772E+00 15256    .130E+01     .886E-03                                     
RMM:   2     -.248452947997E+02    -.69862E-02    -.40070E-02 14066    .211E-01     .320E-03                                     
RMM:   3     -.248454129271E+02    -.11813E-03    -.79572E-04  9828    .256E-02     .163E-03                                     
RMM:   4     -.248454334506E+02    -.20524E-04    -.58884E-05  6258    .823E-03                                                  
   70 T=  3036. E= -.19744455E+02 F= -.24845433E+02 E0= -.24764914E+02  EK=  .51010E+01 SP=  .00E+00 SK=  .00E+00 mag=       .986
       N       E                     dE             d eps       ncg     rms          rms(c)                                      
DAV:   1     -.248413333569E+02     .40796E-02    -.13158E+00 15720    .116E+01     .877E-03                                     
RMM:   2     -.248452562141E+02    -.39229E-02    -.13215E-02 14274    .155E-01     .245E-03                                     
RMM:   3     -.248453036112E+02    -.47397E-04    -.14914E-04  9735    .155E-02     .144E-03                                     
RMM:   4     -.248453119459E+02    -.83347E-05    -.11715E-05  6487    .628E-03                                                  
   71 T=  3036. E= -.19744458E+02 F= -.24845312E+02 E0= -.24764791E+02  EK=  .51009E+01 SP=  .00E+00 SK=  .00E+00 mag=       .985
       N       E                     dE             d eps       ncg     rms          rms(c)                                      
DAV:   1     -.248373278591E+02     .79758E-02    -.18776E+00 15272    .108E+01     .100E-02                                     
RMM:   2     -.248448712063E+02    -.75433E-02    -.51627E-02 13646    .215E-01     .426E-03                                     
RMM:   3     -.248451864704E+02    -.31526E-03    -.90788E-04 10752    .336E-02     .163E-03                                     
RMM:   4     -.248451952132E+02    -.87428E-05    -.46887E-05  6665    .815E-03                                                  
   72 T=  3035. E= -.19744453E+02 F= -.24845195E+02 E0= -.24764673E+02  EK=  .51007E+01 SP=  .00E+00 SK=  .00E+00 mag=       .984
       N       E                     dE             d eps       ncg     rms          rms(c)                                      
DAV:   1     -.248133774157E+02     .31809E-01    -.35379E+00 15176    .122E+01     .154E-02                                     
RMM:   2     -.248506039000E+02    -.37226E-01    -.34741E-01 13560    .270E-01     .487E-03                                     
RMM:   3     -.248450773714E+02     .55265E-02    -.43251E-03 10309    .370E-02     .331E-03                                     
RMM:   4     -.248450946524E+02    -.17281E-04    -.11823E-04  5634    .865E-03                                                  
   73 T=  3035. E= -.19744449E+02 F= -.24845095E+02 E0= -.24764570E+02  EK=  .51006E+01 SP=  .00E+00 SK=  .00E+00 mag=       .983
       N       E                     dE             d eps       ncg     rms          rms(c)                                      
DAV:   1     -.248379581821E+02     .71192E-02    -.19303E+00 15472    .112E+01     .114E-02                                     
RMM:   2     -.248448341487E+02    -.68760E-02    -.46368E-02 14211    .233E-01     .550E-03                                     
RMM:   3     -.248449722071E+02    -.13806E-03    -.71001E-04  9748    .226E-02     .418E-03                                     
RMM:   4     -.248450025471E+02    -.30340E-04    -.46123E-05  7009    .828E-03     .275E-03                                     
RMM:   5     -.248450152252E+02    -.12678E-04    -.10213E-05  7240    .610E-03                                                  
   74 T=  3035. E= -.19744446E+02 F= -.24845015E+02 E0= -.24764489E+02  EK=  .51006E+01 SP=  .00E+00 SK=  .00E+00 mag=       .982
       N       E                     dE             d eps       ncg     rms          rms(c)                                      
DAV:   1     -.248433482402E+02     .16543E-02    -.17048E+00 14784    .111E+01     .109E-02                                     
RMM:   2     -.248449190665E+02    -.15708E-02    -.36774E-03 13065    .881E-02     .704E-03                                     
RMM:   3     -.248449435492E+02    -.24483E-04    -.70886E-05  9179    .116E-02                                                  
   75 T=  3035. E= -.19744431E+02 F= -.24844944E+02 E0= -.24764416E+02  EK=  .51005E+01 SP=  .00E+00 SK=  .00E+00 mag=       .981
       N       E                     dE             d eps       ncg     rms          rms(c)                                      
DAV:   1     -.248407605675E+02     .41585E-02    -.24629E+00 14664    .111E+01     .139E-02                                     
RMM:   2     -.248446969143E+02    -.39363E-02    -.27296E-02 13664    .176E-01     .122E-02                                     
RMM:   3     -.248447706767E+02    -.73762E-04    -.27494E-04  9585    .170E-02     .104E-02                                     
RMM:   4     -.248448593344E+02    -.88658E-04    -.21236E-05  9343    .913E-03     .621E-03                                     
RMM:   5     -.248449024131E+02    -.43079E-04    -.86503E-06  7198    .655E-03     .283E-03                                     
RMM:   6     -.248449168056E+02    -.14392E-04    -.24681E-06  5750    .441E-03                                                  
   76 T=  3035. E= -.19744440E+02 F= -.24844917E+02 E0= -.24764386E+02  EK=  .51005E+01 SP=  .00E+00 SK=  .00E+00 mag=       .979
       N       E                     dE             d eps       ncg     rms          rms(c)                                      
DAV:   1     -.248426549725E+02     .22474E-02    -.12348E+00 15160    .114E+01     .158E-02                                     
RMM:   2     -.248448653473E+02    -.22104E-02    -.61923E-03 13900    .105E-01     .398E-03                                     
RMM:   3     -.248449017330E+02    -.36386E-04    -.77136E-05  9828    .127E-02     .229E-03                                     
RMM:   4     -.248449071920E+02    -.54589E-05    -.68356E-06  6702    .561E-03                                                  
   77 T=  3035. E= -.19744440E+02 F= -.24844907E+02 E0= -.24764374E+02  EK=  .51005E+01 SP=  .00E+00 SK=  .00E+00 mag=       .978
       N       E                     dE             d eps       ncg     rms          rms(c)                                      
DAV:   1     -.248175991679E+02     .27303E-01    -.31381E+00 14472    .125E+01     .154E-02                                     
RMM:   2     -.248487760633E+02    -.31177E-01    -.30503E-01 13339    .270E-01     .636E-03                                     
RMM:   3     -.248449019163E+02     .38741E-02    -.37650E-03 10516    .403E-02     .389E-03                                     
[...]
  595 T=  2998. E= -.19741239E+02 F= -.24779366E+02 E0= -.24698771E+02  EK=  .50381E+01 SP=  .00E+00 SK=  .00E+00 mag=      1.000
       N       E                     dE             d eps       ncg     rms          rms(c)                                      
DAV:   1     -.247707200629E+02     .86518E-02    -.20326E+00 12600    .120E+01     .825E-03                                     
RMM:   2     -.247740468628E+02    -.33268E-02    -.14167E-02 12259    .110E-01     .588E-03                                     
RMM:   3     -.247761375831E+02    -.20907E-02    -.18659E-04  8237    .148E-02     .371E-03                                     
RMM:   4     -.247773891525E+02    -.12516E-02    -.14289E-05  6625    .657E-03     .455E-03                                     
RMM:   5     -.247791615128E+02    -.17724E-02    -.33100E-06  5602    .443E-03     .877E-04                                     
RMM:   6     -.247793479575E+02    -.18644E-03    -.60332E-07  3508    .316E-03     .654E-04                                     
RMM:   7     -.247793964499E+02    -.48492E-04    -.14291E-06  4002    .376E-03     .285E-04                                     
RMM:   8     -.247793939617E+02     .24882E-05    -.83181E-08  2377    .262E-03                                                  
  596 T=  2998. E= -.19741243E+02 F= -.24779394E+02 E0= -.24698798E+02  EK=  .50382E+01 SP=  .00E+00 SK=  .00E+00 mag=      1.000
       N       E                     dE             d eps       ncg     rms          rms(c)                                      
DAV:   1     -.247700217845E+02     .93747E-02    -.12700E+00 12136    .110E+01     .821E-03                                     
RMM:   2     -.247740731920E+02    -.40514E-02    -.21490E-02 12188    .119E-01     .599E-03                                     
RMM:   3     -.247752341150E+02    -.11609E-02    -.28254E-04  9073    .153E-02     .618E-03                                     
RMM:   4     -.247768943204E+02    -.16602E-02    -.21911E-05  5549    .618E-03     .287E-03                                     
RMM:   5     -.247791810287E+02    -.22867E-02    -.37231E-06  5871    .467E-03     .100E-03                                     
RMM:   6     -.247793595429E+02    -.17851E-03    -.49748E-07  3307    .308E-03     .538E-04                                     
RMM:   7     -.247794133992E+02    -.53856E-04    -.16522E-06  4314    .394E-03     .258E-04                                     
RMM:   8     -.247794155035E+02    -.21043E-05    -.74803E-08  2259    .257E-03                                                  
  597 T=  2998. E= -.19741240E+02 F= -.24779416E+02 E0= -.24698819E+02  EK=  .50382E+01 SP=  .00E+00 SK=  .00E+00 mag=      1.000
       N       E                     dE             d eps       ncg     rms          rms(c)                                      
DAV:   1     -.247719828715E+02     .74305E-02    -.17514E+00 11520    .109E+01     .798E-03                                     
RMM:   2     -.247741245077E+02    -.21416E-02    -.23791E-03 11897    .468E-02     .573E-03                                     
RMM:   3     -.247789791344E+02    -.48546E-02    -.34886E-05  8638    .855E-03     .999E-04                                     
RMM:   4     -.247794445931E+02    -.46546E-03    -.66946E-06  5822    .547E-03     .192E-03                                     
RMM:   5     -.247793884182E+02     .56175E-04    -.94809E-07  3450    .330E-03     .496E-04                                     
RMM:   6     -.247793956783E+02    -.72601E-05    -.94026E-08  2194    .260E-03                                                  
  598 T=  2998. E= -.19741193E+02 F= -.24779396E+02 E0= -.24698798E+02  EK=  .50382E+01 SP=  .00E+00 SK=  .00E+00 mag=      1.000
       N       E                     dE             d eps       ncg     rms          rms(c)                                      
DAV:   1     -.247714057236E+02     .79827E-02    -.13713E+00 11592    .108E+01     .802E-03                                     
RMM:   2     -.247742152679E+02    -.28095E-02    -.92943E-03 11946    .816E-02     .577E-03                                     
RMM:   3     -.247774454205E+02    -.32302E-02    -.10739E-04  8180    .110E-02     .338E-03                                     
RMM:   4     -.247782078448E+02    -.76242E-03    -.79071E-06  5265    .508E-03     .264E-03                                     
RMM:   5     -.247794667063E+02    -.12589E-02    -.55373E-06  5651    .521E-03     .437E-04                                     
RMM:   6     -.247794454626E+02     .21244E-04    -.37048E-07  3014    .299E-03                                                  
  599 T=  2998. E= -.19741214E+02 F= -.24779445E+02 E0= -.24698846E+02  EK=  .50382E+01 SP=  .00E+00 SK=  .00E+00 mag=      1.000
       N       E                     dE             d eps       ncg     rms          rms(c)                                      
DAV:   1     -.247719731749E+02     .74935E-02    -.25624E+00 12000    .112E+01     .799E-03                                     
RMM:   2     -.247742007879E+02    -.22276E-02    -.32885E-03 11782    .584E-02     .576E-03                                     
RMM:   3     -.247773527826E+02    -.31520E-02    -.63527E-05  9096    .105E-02     .382E-03                                     
RMM:   4     -.247790245140E+02    -.16717E-02    -.72300E-06  6622    .558E-03     .217E-03                                     
RMM:   5     -.247794066119E+02    -.38210E-03    -.12660E-06  4108    .361E-03     .150E-03                                     
RMM:   6     -.247794685700E+02    -.61958E-04    -.20686E-06  4274    .403E-03     .386E-04                                     
RMM:   7     -.247794752811E+02    -.67111E-05    -.82939E-08  2262    .253E-03                                                  
  600 T=  2998. E= -.19741216E+02 F= -.24779475E+02 E0= -.24698875E+02  EK=  .50383E+01 SP=  .00E+00 SK=  .00E+00 mag=      1.000
       N       E                     dE             d eps       ncg     rms          rms(c)                                      
DAV:   1     -.247717897251E+02     .76788E-02    -.14130E+00 11944    .105E+01     .797E-03                                     
RMM:   2     -.247741246919E+02    -.23350E-02    -.40412E-03 11669    .594E-02     .576E-03                                     
RMM:   3     -.247773287043E+02    -.32040E-02    -.13528E-04  9110    .108E-02     .366E-03                                     
RMM:   4     -.247792029765E+02    -.18743E-02    -.11997E-05  6708    .585E-03     .125E-03                                     
RMM:   5     -.247795254639E+02    -.32249E-03    -.21596E-06  4332    .383E-03     .160E-03                                     
RMM:   6     -.247795178892E+02     .75747E-05    -.74325E-07  3488    .330E-03                                                  
  601 T=  2998. E= -.19741229E+02 F= -.24779518E+02 E0= -.24698916E+02  EK=  .50383E+01 SP=  .00E+00 SK=  .00E+00 mag=      1.000
       N       E                     dE             d eps       ncg     rms          rms(c)                                      
DAV:   1      .111335437540E+04     .11134E+04    -.62901E+04 16320    .995E+02                                                  
DAV:   2      .174105755544E+02    -.10959E+04    -.10391E+04 16856    .279E+02                                                  
DAV:   3     -.253233133732E+02    -.42734E+02    -.42175E+02 18056    .673E+01                                                  
DAV:   4     -.257027732868E+02    -.37946E+00    -.37893E+00 18072    .607E+00                                                  
DAV:   5     -.257072461797E+02    -.44729E-02    -.44728E-02 18248    .567E-01     .167E+01                                     
RMM:   6     -.242276169396E+02     .14796E+01    -.57840E+00 16320    .812E+00     .106E+01                                     
RMM:   7     -.319286403285E+02    -.77010E+01    -.12740E+01 16347    .717E+00     .953E+00                                     
RMM:   8     -.272257234439E+02     .47029E+01    -.94047E+00 16367    .567E+00     .564E+00                                     
RMM:   9     -.258072558462E+02     .14185E+01    -.30667E+00 16388    .313E+00     .448E+00                                     
RMM:  10     -.248601585743E+02     .94710E+00    -.74999E-01 16382    .190E+00     .123E+00                                     
RMM:  11     -.247800940084E+02     .80065E-01    -.17305E-01 16404    .955E-01     .264E-01                                     
RMM:  12     -.247775044810E+02     .25895E-02    -.68664E-03 16414    .219E-01     .139E-01                                     
RMM:  13     -.247786545597E+02    -.11501E-02    -.82998E-04 16390    .826E-02     .557E-02                                     
RMM:  14     -.247793488680E+02    -.69431E-03    -.65007E-05 10532    .238E-02     .258E-02                                     
RMM:  15     -.247795453266E+02    -.19646E-03    -.44103E-05  9933    .204E-02     .894E-03                                     
RMM:  16     -.247795618318E+02    -.16505E-04    -.76218E-06  9523    .802E-03                                                  
  602 T=  2998. E= -.19741243E+02 F= -.24779562E+02 E0= -.24698959E+02  EK=  .50383E+01 SP=  .00E+00 SK=  .00E+00 mag=       .999
       N       E                     dE             d eps       ncg     rms          rms(c)                                      
DAV:   1     -.243292361375E+02     .45031E+00    -.15036E-01 16960    .146E-01     .298E-01                                     
RMM:   2     -.244645848435E+02    -.13535E+00    -.69141E-04 10393    .253E-02     .215E-01                                     
RMM:   3     -.247593574888E+02    -.29477E+00    -.12290E-03 11369    .311E-02     .298E-02                                     
RMM:   4     -.247612804408E+02    -.19230E-02    -.91495E-05 11389    .180E-02     .271E-02                                     
RMM:   5     -.247746638879E+02    -.13383E-01    -.24276E-05  9851    .104E-02     .122E-02                                     
RMM:   6     -.247775163966E+02    -.28525E-02    -.23435E-05  9796    .939E-03     .865E-03                                     
RMM:   7     -.247794102159E+02    -.18938E-02    -.10075E-05  8432    .634E-03     .102E-03                                     
RMM:   8     -.247793701392E+02     .40077E-04    -.88898E-08  2782    .221E-03     .547E-04                                     
RMM:   9     -.247794429300E+02    -.72791E-04    -.13070E-07  2478    .228E-03     .316E-04                                     
RMM:  10     -.247795912424E+02    -.14831E-03    -.53177E-06  4361    .378E-03     .143E-04                                     
RMM:  11     -.247795930808E+02    -.18384E-05    -.47663E-07  2621    .252E-03                                                  
  603 T=  2998. E= -.19741245E+02 F= -.24779593E+02 E0= -.24698989E+02  EK=  .50383E+01 SP=  .00E+00 SK=  .00E+00 mag=      1.000
       N       E                     dE             d eps       ncg     rms          rms(c)                                      
DAV:   1      .111335146876E+04     .11134E+04    -.62901E+04 16320    .995E+02                                                  
DAV:   2      .174246192219E+02    -.10959E+04    -.10391E+04 16864    .279E+02                                                  
DAV:   3     -.253236023955E+02    -.42748E+02    -.42189E+02 18048    .673E+01                                                  
DAV:   4     -.257028854922E+02    -.37928E+00    -.37876E+00 18072    .607E+00                                                  
DAV:   5     -.257073196425E+02    -.44342E-02    -.44340E-02 18240    .565E-01     .167E+01                                     
RMM:   6     -.242277662015E+02     .14796E+01    -.57841E+00 16320    .812E+00     .106E+01                                     
RMM:   7     -.319297840946E+02    -.77020E+01    -.12741E+01 16346    .717E+00     .953E+00                                     
RMM:   8     -.272261578500E+02     .47036E+01    -.94051E+00 16367    .567E+00     .564E+00                                     
RMM:   9     -.258073040180E+02     .14189E+01    -.30669E+00 16388    .313E+00     .448E+00                                     
RMM:  10     -.248602467251E+02     .94706E+00    -.75008E-01 16383    .190E+00     .123E+00                                     
RMM:  11     -.247801725177E+02     .80074E-01    -.17309E-01 16405    .955E-01     .264E-01                                     
RMM:  12     -.247775937013E+02     .25788E-02    -.68643E-03 16414    .219E-01     .139E-01                                     
RMM:  13     -.247787283659E+02    -.11347E-02    -.82881E-04 16391    .825E-02     .557E-02                                     
RMM:  14     -.247794132974E+02    -.68493E-03    -.64503E-05 10522    .237E-02     .258E-02                                     
RMM:  15     -.247796049982E+02    -.19170E-03    -.43984E-05  9923    .204E-02     .893E-03                                     
RMM:  16     -.247796207711E+02    -.15773E-04    -.75680E-06  9519    .797E-03                                                  
  604 T=  2998. E= -.19741242E+02 F= -.24779621E+02 E0= -.24699015E+02  EK=  .50384E+01 SP=  .00E+00 SK=  .00E+00 mag=       .999
       N       E                     dE             d eps       ncg     rms          rms(c)                                      
DAV:   1     -.243292914537E+02     .45031E+00    -.15036E-01 16976    .146E-01     .298E-01                                     
RMM:   2     -.244646540190E+02    -.13536E+00    -.69064E-04 10389    .252E-02     .215E-01                                     
RMM:   3     -.247595103139E+02    -.29486E+00    -.12224E-03 11341    .309E-02     .298E-02                                     
RMM:   4     -.247614329682E+02    -.19227E-02    -.92216E-05 11425    .181E-02     .272E-02                                     
RMM:   5     -.247746841181E+02    -.13251E-01    -.24911E-05  9863    .106E-02     .123E-02                                     
RMM:   6     -.247775042524E+02    -.28201E-02    -.23392E-05  9794    .939E-03     .862E-03                                     
RMM:   7     -.247794572625E+02    -.19530E-02    -.96115E-06  8333    .624E-03     .102E-03                                     
RMM:   8     -.247794258352E+02     .31427E-04    -.92825E-08  2765    .221E-03     .548E-04                                     
RMM:   9     -.247795027619E+02    -.76927E-04    -.13415E-07  2490    .229E-03     .317E-04                                     
RMM:  10     -.247796528014E+02    -.15004E-03    -.51918E-06  4333    .378E-03     .140E-04                                     
RMM:  11     -.247796541927E+02    -.13914E-05    -.42115E-07  2565    .250E-03                                                  
  605 T=  2998. E= -.19741244E+02 F= -.24779654E+02 E0= -.24699048E+02  EK=  .50384E+01 SP=  .00E+00 SK=  .00E+00 mag=      1.000
       N       E                     dE             d eps       ncg     rms          rms(c)                                      
DAV:   1     -.246764838726E+02     .10317E+00    -.18982E+00 12624    .577E+00     .436E-02                                     
RMM:   2     -.247487616202E+02    -.72278E-01    -.57330E-01 12400    .438E-01     .344E-02                                     
RMM:   3     -.247465011794E+02     .22604E-02    -.92713E-03 12175    .690E-02     .317E-02                                     
RMM:   4     -.247574034103E+02    -.10902E-01    -.95654E-04 11117    .288E-02     .231E-02                                     
RMM:   5     -.247646430572E+02    -.72396E-02    -.12170E-04 10391    .157E-02     .138E-02                                     
RMM:   6     -.247774577552E+02    -.12815E-01    -.14887E-05  9450    .806E-03     .311E-03                                     
RMM:   7     -.247796847432E+02    -.22270E-02    -.67088E-06  5314    .443E-03     .130E-03                                     
RMM:   8     -.247796676410E+02     .17102E-04    -.16222E-06  4125    .354E-03                                                  
  606 T=  2998. E= -.19741226E+02 F= -.24779668E+02 E0= -.24699060E+02  EK=  .50384E+01 SP=  .00E+00 SK=  .00E+00 mag=      1.000
       N       E                     dE             d eps       ncg     rms          rms(c)                                      
DAV:   1     -.247719676479E+02     .77171E-02    -.15361E+00 13104    .111E+01     .862E-03                                     
RMM:   2     -.247743975943E+02    -.24299E-02    -.53343E-03 12731    .706E-02     .621E-03                                     
RMM:   3     -.247753228594E+02    -.92527E-03    -.15983E-04  9545    .123E-02     .677E-03                                     
RMM:   4     -.247778669550E+02    -.25441E-02    -.15346E-05  6812    .595E-03     .251E-03                                     
RMM:   5     -.247791225571E+02    -.12556E-02    -.30048E-06  5306    .412E-03     .197E-03                                     
RMM:   6     -.247796301638E+02    -.50761E-03    -.81607E-07  3661    .323E-03     .678E-04                                     
RMM:   7     -.247797052616E+02    -.75098E-04    -.13119E-06  4116    .378E-03     .298E-04                                     
RMM:   8     -.247797049594E+02     .30219E-06    -.69946E-08  2156    .262E-03                                                  
  607 T=  2998. E= -.19741230E+02 F= -.24779705E+02 E0= -.24699096E+02  EK=  .50385E+01 SP=  .00E+00 SK=  .00E+00 mag=      1.000
       N       E                     dE             d eps       ncg     rms          rms(c)                                      
DAV:   1     -.247720862177E+02     .76190E-02    -.28661E+00 11744    .116E+01     .810E-03                                     
RMM:   2     -.247744497241E+02    -.23635E-02    -.46510E-03 11988    .566E-02     .592E-03                                     
RMM:   3     -.247771591997E+02    -.27095E-02    -.12655E-04  7795    .108E-02     .295E-03                                     
RMM:   4     -.247793312796E+02    -.21721E-02    -.13244E-05  6938    .599E-03     .316E-03                                     
RMM:   5     -.247797048863E+02    -.37361E-03    -.13580E-06  4020    .349E-03     .868E-04                                     
RMM:   6     -.247797504391E+02    -.45553E-04    -.53446E-07  3427    .311E-03     .584E-04                                     
RMM:   7     -.247797433688E+02     .70703E-05    -.24065E-07  2961    .288E-03                                                  
  608 T=  2998. E= -.19741234E+02 F= -.24779743E+02 E0= -.24699133E+02  EK=  .50385E+01 SP=  .00E+00 SK=  .00E+00 mag=      1.000
       N       E                     dE             d eps       ncg     rms          rms(c)                                      
DAV:   1     -.247720802942E+02     .76701E-02    -.24758E+00 12592    .117E+01     .797E-03                                     
RMM:   2     -.247744653924E+02    -.23851E-02    -.48233E-03 12355    .758E-02     .583E-03                                     
RMM:   3     -.247774772570E+02    -.30119E-02    -.76838E-05  8042    .116E-02     .272E-03                                     
RMM:   4     -.247791217894E+02    -.16445E-02    -.73838E-06  6648    .587E-03     .359E-03                                     
RMM:   5     -.247797641024E+02    -.64231E-03    -.21286E-06  4824    .399E-03     .958E-04                                     
RMM:   6     -.247797765847E+02    -.12482E-04    -.68054E-07  3515    .328E-03                                                  
  609 T=  2998. E= -.19741230E+02 F= -.24779777E+02 E0= -.24699165E+02  EK=  .50385E+01 SP=  .00E+00 SK=  .00E+00 mag=      1.000
