       N       E                     dE             d eps       ncg     rms          rms(c)                                      
DAV:   1      .111614681719E+04     .11161E+04    -.62962E+04 16320    .996E+02                                                  
DAV:   2      .171791625062E+02    -.10990E+04    -.10421E+04 16864    .279E+02                                                  
DAV:   3     -.255149121705E+02    -.42694E+02    -.42145E+02 18088    .673E+01                                                  
DAV:   4     -.258948932345E+02    -.37998E+00    -.37946E+00 18112    .609E+00                                                  
DAV:   5     -.258994461710E+02    -.45529E-02    -.45528E-02 18200    .572E-01     .168E+01                                     
RMM:   6     -.244041282831E+02     .14953E+01    -.57918E+00 16320    .813E+00     .107E+01                                     
RMM:   7     -.319691909910E+02    -.75651E+01    -.12900E+01 16359    .722E+00     .949E+00                                     
RMM:   8     -.273831353468E+02     .45861E+01    -.95367E+00 16365    .572E+00     .558E+00                                     
RMM:   9     -.260133299990E+02     .13698E+01    -.31341E+00 16393    .316E+00     .447E+00                                     
RMM:  10     -.250254813505E+02     .98785E+00    -.74724E-01 16380    .189E+00     .119E+00                                     
RMM:  11     -.249485198529E+02     .76961E-01    -.16118E-01 16400    .923E-01     .270E-01                                     
RMM:  12     -.249459158192E+02     .26040E-02    -.70000E-03 16415    .220E-01     .138E-01                                     
RMM:  13     -.249472076916E+02    -.12919E-02    -.92436E-04 16403    .886E-02     .537E-02                                     
RMM:  14     -.249478239023E+02    -.61621E-03    -.61357E-05 10463    .224E-02     .244E-02                                     
RMM:  15     -.249480441694E+02    -.22027E-03    -.39762E-05  9914    .193E-02     .889E-03                                     
RMM:  16     -.249480550284E+02    -.10859E-04    -.78436E-06  9535    .831E-03                                                  
    1 T=  3095. E= -.19746413E+02 F= -.24948055E+02 E0= -.24868515E+02  EK=  .52016E+01 SP=  .00E+00 SK=  .00E+00 mag=       .999
       N       E                     dE             d eps       ncg     rms          rms(c)                                      
DAV:   1     -.244926250496E+02     .45542E+00    -.15498E-01 17104    .160E-01     .301E-01                                     
RMM:   2     -.246322082197E+02    -.13958E+00    -.85339E-04 10898    .367E-02     .217E-01                                     
RMM:   3     -.249265410766E+02    -.29433E+00    -.13137E-03 11483    .405E-02     .221E-02                                     
RMM:   4     -.249441964790E+02    -.17655E-01    -.21899E-05  9264    .957E-03     .121E-02                                     
RMM:   5     -.249480957476E+02    -.38993E-02    -.17576E-05  6780    .582E-03     .219E-03                                     
RMM:   6     -.249478117330E+02     .28401E-03    -.45241E-06  4628    .385E-03     .618E-04                                     
RMM:   7     -.249481393386E+02    -.32761E-03    -.56786E-06  3929    .354E-03     .163E-04                                     
RMM:   8     -.249481362877E+02     .30509E-05    -.27150E-06  3414    .311E-03                                                  
    2 T=  3096. E= -.19746397E+02 F= -.24948136E+02 E0= -.24868594E+02  EK=  .52017E+01 SP=  .00E+00 SK=  .00E+00 mag=      1.000
       N       E                     dE             d eps       ncg     rms          rms(c)                                      
DAV:   1     -.248755329879E+02     .72606E-01    -.75982E-01 11952    .218E+00     .430E-02                                     
RMM:   2     -.249146373963E+02    -.39104E-01    -.23783E-01 10967    .137E-01     .277E-02                                     
RMM:   3     -.249354812663E+02    -.20844E-01    -.33162E-03 10427    .326E-02     .157E-02                                     
RMM:   4     -.249447244296E+02    -.92432E-02    -.17980E-04 10211    .135E-02     .533E-03                                     
RMM:   5     -.249475162684E+02    -.27918E-02    -.23328E-05  7419    .625E-03     .331E-03                                     
RMM:   6     -.249478564634E+02    -.34019E-03    -.12769E-05  5208    .478E-03     .150E-03                                     
RMM:   7     -.249481284000E+02    -.27194E-03    -.42743E-06  4700    .442E-03     .595E-04                                     
RMM:   8     -.249482321111E+02    -.10371E-03    -.40681E-06  3963    .389E-03     .235E-04                                     
RMM:   9     -.249482410849E+02    -.89739E-05    -.82151E-08  2123    .248E-03                                                  
    3 T=  3096. E= -.19746404E+02 F= -.24948241E+02 E0= -.24868697E+02  EK=  .52018E+01 SP=  .00E+00 SK=  .00E+00 mag=      1.000
       N       E                     dE             d eps       ncg     rms          rms(c)                                      
DAV:   1     -.249170111640E+02     .31221E-01    -.22372E+00 13000    .544E+00     .165E-02                                     
RMM:   2     -.249510249314E+02    -.34014E-01    -.30388E-01 11152    .878E-02     .925E-03                                     
RMM:   3     -.249453162532E+02     .57087E-02    -.45236E-03  9780    .248E-02     .719E-03                                     
RMM:   4     -.249457469796E+02    -.43073E-03    -.15738E-04  5180    .649E-03     .499E-03                                     
RMM:   5     -.249463893574E+02    -.64238E-03    -.56038E-06  5785    .402E-03     .322E-03                                     
RMM:   6     -.249474506622E+02    -.10613E-02    -.41763E-06  6334    .440E-03     .127E-03                                     
RMM:   7     -.249480129456E+02    -.56228E-03    -.79469E-07  4028    .320E-03     .769E-04                                     
RMM:   8     -.249482863830E+02    -.27344E-03    -.15467E-06  4759    .382E-03     .562E-04                                     
RMM:   9     -.249483340759E+02    -.47693E-04    -.12853E-06  3270    .282E-03     .123E-04                                     
RMM:  10     -.249483440970E+02    -.10021E-04    -.38263E-07  2371    .256E-03                                                  
    4 T=  3096. E= -.19746408E+02 F= -.24948344E+02 E0= -.24868798E+02  EK=  .52019E+01 SP=  .00E+00 SK=  .00E+00 mag=      1.000
       N       E                     dE             d eps       ncg     rms          rms(c)                                      
DAV:   1     -.249409846458E+02     .73494E-02    -.22682E+00 11496    .673E+00     .826E-03                                     
RMM:   2     -.249461587448E+02    -.51741E-02    -.21836E-04 10924    .243E-02     .501E-03                                     
RMM:   3     -.249477531242E+02    -.15944E-02    -.21218E-05  7519    .701E-03     .288E-03                                     
RMM:   4     -.249479338910E+02    -.18077E-03    -.68373E-06  5628    .446E-03     .116E-03                                     
RMM:   5     -.249482044221E+02    -.27053E-03    -.15159E-06  4507    .353E-03     .484E-04                                     
RMM:   6     -.249484169811E+02    -.21256E-03    -.36343E-06  3776    .340E-03     .201E-04                                     
RMM:   7     -.249484434991E+02    -.26518E-04    -.16009E-06  3639    .332E-03                                                  
    5 T=  3096. E= -.19746407E+02 F= -.24948443E+02 E0= -.24868897E+02  EK=  .52020E+01 SP=  .00E+00 SK=  .00E+00 mag=      1.000
       N       E                     dE             d eps       ncg     rms          rms(c)                                      
DAV:   1     -.249373159180E+02     .11101E-01    -.21712E+00 11808    .880E+00     .842E-03                                     
RMM:   2     -.249473655433E+02    -.10050E-01    -.36781E-02 10994    .944E-02     .285E-03                                     
RMM:   3     -.249478374554E+02    -.47191E-03    -.66030E-04  7795    .142E-02     .188E-03                                     
RMM:   4     -.249480709869E+02    -.23353E-03    -.36008E-05  4968    .545E-03     .122E-03                                     
RMM:   5     -.249484072853E+02    -.33630E-03    -.52905E-06  5580    .440E-03     .568E-04                                     
RMM:   6     -.249484496644E+02    -.42379E-04    -.13283E-06  3667    .313E-03     .195E-04                                     
RMM:   7     -.249485254230E+02    -.75759E-04    -.29707E-07  2881    .276E-03     .863E-05                                     
RMM:   8     -.249485468565E+02    -.21434E-04    -.33346E-07  2689    .276E-03                                                  
    6 T=  3096. E= -.19746408E+02 F= -.24948547E+02 E0= -.24868998E+02  EK=  .52021E+01 SP=  .00E+00 SK=  .00E+00 mag=      1.000
       N       E                     dE             d eps       ncg     rms          rms(c)                                      
DAV:   1     -.249409586535E+02     .75668E-02    -.27762E+00 11496    .783E+00     .793E-03                                     
RMM:   2     -.249473054411E+02    -.63468E-02    -.19773E-03 11052    .439E-02     .306E-03                                     
RMM:   3     -.249478046965E+02    -.49926E-03    -.30501E-05  7679    .797E-03     .185E-03                                     
RMM:   4     -.249483805710E+02    -.57587E-03    -.73966E-06  7131    .559E-03     .849E-04                                     
RMM:   5     -.249485202810E+02    -.13971E-03    -.88039E-07  4208    .332E-03     .347E-04                                     
RMM:   6     -.249486239884E+02    -.10371E-03    -.51093E-07  3138    .281E-03     .954E-05                                     
RMM:   7     -.249486543581E+02    -.30370E-04    -.26862E-07  2842    .264E-03     .566E-05                                     
RMM:   8     -.249486544914E+02    -.13336E-06    -.13778E-07  2218    .245E-03                                                  
    7 T=  3096. E= -.19746411E+02 F= -.24948654E+02 E0= -.24869105E+02  EK=  .52022E+01 SP=  .00E+00 SK=  .00E+00 mag=      1.000
       N       E                     dE             d eps       ncg     rms          rms(c)                                      
DAV:   1     -.249409165217E+02     .77378E-02    -.16246E+00 11624    .866E+00     .792E-03                                     
RMM:   2     -.249478175997E+02    -.69011E-02    -.39497E-03 11110    .559E-02     .283E-03                                     
RMM:   3     -.249481656418E+02    -.34804E-03    -.60196E-05  7882    .916E-03     .161E-03                                     
RMM:   4     -.249484202983E+02    -.25466E-03    -.60718E-06  5551    .466E-03     .744E-04                                     
RMM:   5     -.249485862983E+02    -.16600E-03    -.48695E-06  5210    .411E-03     .225E-04                                     
RMM:   6     -.249487102165E+02    -.12392E-03    -.90939E-07  3091    .271E-03     .144E-04                                     
RMM:   7     -.249487507671E+02    -.40551E-04    -.35786E-07  2860    .268E-03     .517E-05                                     
RMM:   8     -.249487611880E+02    -.10421E-04    -.12777E-07  2288    .252E-03                                                  
    8 T=  3096. E= -.19746412E+02 F= -.24948761E+02 E0= -.24869210E+02  EK=  .52023E+01 SP=  .00E+00 SK=  .00E+00 mag=      1.000
       N       E                     dE             d eps       ncg     rms          rms(c)                                      
DAV:   1     -.249401723009E+02     .85785E-02    -.23030E+00 12080    .935E+00     .815E-03                                     
RMM:   2     -.249480452612E+02    -.78730E-02    -.11982E-02 11315    .816E-02     .370E-03                                     
RMM:   3     -.249484234492E+02    -.37819E-03    -.18810E-04  8416    .118E-02     .189E-03                                     
RMM:   4     -.249486362425E+02    -.21279E-03    -.20512E-05  5502    .531E-03     .885E-04                                     
RMM:   5     -.249487491455E+02    -.11290E-03    -.34717E-06  4752    .389E-03     .382E-04                                     
RMM:   6     -.249488252915E+02    -.76146E-04    -.59853E-07  3471    .293E-03     .139E-04                                     
RMM:   7     -.249488587550E+02    -.33464E-04    -.91916E-07  3417    .301E-03     .631E-05                                     
RMM:   8     -.249488602265E+02    -.14715E-05    -.19057E-07  2196    .254E-03                                                  
    9 T=  3096. E= -.19746404E+02 F= -.24948860E+02 E0= -.24869307E+02  EK=  .52025E+01 SP=  .00E+00 SK=  .00E+00 mag=      1.000
       N       E                     dE             d eps       ncg     rms          rms(c)                                      
DAV:   1     -.249414665131E+02     .73922E-02    -.17380E+00 11216    .998E+00     .782E-03                                     
RMM:   2     -.249481567987E+02    -.66903E-02    -.47454E-04 11087    .290E-02     .197E-03                                     
RMM:   3     -.249486700286E+02    -.51323E-03    -.14635E-05  7504    .688E-03     .152E-03                                     
RMM:   4     -.249487745902E+02    -.10456E-03    -.13652E-06  4349    .367E-03     .757E-04                                     
RMM:   5     -.249489184895E+02    -.14390E-03    -.30644E-06  4942    .441E-03     .229E-04                                     
RMM:   6     -.249489659621E+02    -.47473E-04    -.22627E-06  3503    .343E-03     .949E-05                                     
RMM:   7     -.249489748557E+02    -.88937E-05    -.12850E-07  2463    .261E-03                                                  
   10 T=  3096. E= -.19746411E+02 F= -.24948975E+02 E0= -.24869420E+02  EK=  .52026E+01 SP=  .00E+00 SK=  .00E+00 mag=      1.000
       N       E                     dE             d eps       ncg     rms          rms(c)                                      
DAV:   1     -.249357995190E+02     .13166E-01    -.86133E-01 11672    .723E+00     .893E-03                                     
RMM:   2     -.249480651374E+02    -.12266E-01    -.56086E-02 11308    .135E-01     .640E-03                                     
RMM:   3     -.249484217085E+02    -.35657E-03    -.17479E-03  9848    .224E-02     .140E-03                                     
RMM:   4     -.249487233513E+02    -.30164E-03    -.95077E-05  4391    .680E-03     .157E-03                                     
RMM:   5     -.249489785735E+02    -.25522E-03    -.11634E-05  5085    .486E-03     .113E-03                                     
RMM:   6     -.249490560351E+02    -.77462E-04    -.15599E-06  3711    .339E-03     .383E-04                                     
RMM:   7     -.249490557511E+02     .28398E-06    -.78153E-07  2892    .309E-03                                                  
   11 T=  3096. E= -.19746383E+02 F= -.24949056E+02 E0= -.24869500E+02  EK=  .52027E+01 SP=  .00E+00 SK=  .00E+00 mag=      1.000
       N       E                     dE             d eps       ncg     rms          rms(c)                                      
DAV:   1     -.249394691644E+02     .95869E-02    -.17802E+00 11480    .789E+00     .815E-03                                     
RMM:   2     -.249482069124E+02    -.87377E-02    -.21096E-02 10992    .616E-02     .353E-03                                     
RMM:   3     -.249488069347E+02    -.60002E-03    -.96568E-04  7831    .127E-02     .289E-03                                     
RMM:   4     -.249489606415E+02    -.15371E-03    -.73135E-05  5139    .586E-03     .168E-03                                     
RMM:   5     -.249491225131E+02    -.16187E-03    -.91955E-06  5560    .437E-03     .621E-04                                     
RMM:   6     -.249491556537E+02    -.33141E-04    -.18026E-06  3539    .302E-03     .216E-04                                     
RMM:   7     -.249491876305E+02    -.31977E-04    -.69988E-07  3261    .284E-03     .772E-05                                     
RMM:   8     -.249491909279E+02    -.32974E-05    -.25614E-07  2576    .259E-03                                                  
   12 T=  3096. E= -.19746408E+02 F= -.24949191E+02 E0= -.24869634E+02  EK=  .52028E+01 SP=  .00E+00 SK=  .00E+00 mag=      1.000
       N       E                     dE             d eps       ncg     rms          rms(c)                                      
DAV:   1     -.249417384436E+02     .74492E-02    -.20347E+00 11744    .827E+00     .784E-03                                     
RMM:   2     -.249484626355E+02    -.67242E-02    -.12996E-03 10942    .360E-02     .247E-03                                     
RMM:   3     -.249488562790E+02    -.39364E-03    -.23118E-05  7604    .736E-03     .189E-03                                     
RMM:   4     -.249490190342E+02    -.16276E-03    -.33304E-06  4650    .394E-03     .938E-04                                     
RMM:   5     -.249491971343E+02    -.17810E-03    -.44215E-06  4516    .396E-03     .635E-04                                     
RMM:   6     -.249492619850E+02    -.64851E-04    -.88460E-07  3908    .336E-03     .266E-04                                     
RMM:   7     -.249492934222E+02    -.31437E-04    -.43726E-07  3372    .314E-03     .183E-04                                     
RMM:   8     -.249492981076E+02    -.46854E-05    -.23912E-07  2536    .276E-03                                                  
   13 T=  3096. E= -.19746405E+02 F= -.24949298E+02 E0= -.24869740E+02  EK=  .52029E+01 SP=  .00E+00 SK=  .00E+00 mag=      1.000
       N       E                     dE             d eps       ncg     rms          rms(c)                                      
DAV:   1     -.249398319620E+02     .94615E-02    -.19022E+00 12304    .780E+00     .804E-03                                     
RMM:   2     -.249485196799E+02    -.86877E-02    -.20519E-02 11332    .908E-02     .439E-03                                     
RMM:   3     -.249489689858E+02    -.44931E-03    -.63059E-04  9795    .167E-02     .156E-03                                     
RMM:   4     -.249491577951E+02    -.18881E-03    -.65103E-05  4491    .576E-03     .149E-03                                     
RMM:   5     -.249493492282E+02    -.19143E-03    -.87185E-06  4678    .418E-03     .496E-04                                     
RMM:   6     -.249494078754E+02    -.58647E-04    -.16789E-06  4266    .379E-03     .341E-04                                     
RMM:   7     -.249494077431E+02     .13227E-06    -.12730E-07  1972    .253E-03                                                  
   14 T=  3096. E= -.19746403E+02 F= -.24949408E+02 E0= -.24869848E+02  EK=  .52030E+01 SP=  .00E+00 SK=  .00E+00 mag=      1.000
       N       E                     dE             d eps       ncg     rms          rms(c)                                      
DAV:   1     -.249419895924E+02     .74183E-02    -.21864E+00 11520    .906E+00     .790E-03                                     
RMM:   2     -.249486385305E+02    -.66489E-02    -.44371E-04 11248    .321E-02     .293E-03                                     
RMM:   3     -.249491411191E+02    -.50259E-03    -.12122E-05  8124    .700E-03     .159E-03                                     
RMM:   4     -.249493839664E+02    -.24285E-03    -.36430E-06  6013    .453E-03     .542E-04                                     
RMM:   5     -.249494633457E+02    -.79379E-04    -.12682E-06  3523    .293E-03     .373E-04                                     
RMM:   6     -.249495113240E+02    -.47978E-04    -.98385E-07  3808    .314E-03     .210E-04                                     
RMM:   7     -.249495214613E+02    -.10137E-04    -.37283E-07  2852    .280E-03                                                  
   15 T=  3096. E= -.19746403E+02 F= -.24949521E+02 E0= -.24869960E+02  EK=  .52031E+01 SP=  .00E+00 SK=  .00E+00 mag=      1.000
       N       E                     dE             d eps       ncg     rms          rms(c)                                      
DAV:   1     -.249373116603E+02     .12200E-01    -.28131E+00 11792    .962E+00     .937E-03                                     
RMM:   2     -.249487706181E+02    -.11459E-01    -.47338E-02 11515    .131E-01     .355E-03                                     
RMM:   3     -.249492153249E+02    -.44471E-03    -.88764E-04  8779    .180E-02     .182E-03                                     
RMM:   4     -.249494539185E+02    -.23859E-03    -.81478E-05  4583    .676E-03     .124E-03                                     
RMM:   5     -.249495474385E+02    -.93520E-04    -.14153E-05  4150    .379E-03     .475E-04                                     
RMM:   6     -.249495824477E+02    -.35009E-04    -.79556E-07  3279    .291E-03     .269E-04                                     
RMM:   7     -.249496088705E+02    -.26423E-04    -.46288E-07  3092    .284E-03                                                  
   16 T=  3096. E= -.19746375E+02 F= -.24949609E+02 E0= -.24870046E+02  EK=  .52032E+01 SP=  .00E+00 SK=  .00E+00 mag=      1.000
       N       E                     dE             d eps       ncg     rms          rms(c)                                      
DAV:   1     -.249300554509E+02     .19527E-01    -.19315E+00 11712    .694E+00     .940E-03                                     
RMM:   2     -.249489471496E+02    -.18892E-01    -.12174E-01 10848    .193E-01     .302E-03                                     
RMM:   3     -.249495011785E+02    -.55403E-03    -.24497E-03  8009    .260E-02     .169E-03                                     
RMM:   4     -.249494798777E+02     .21301E-04    -.17203E-04  5529    .935E-03                                                  
   17 T=  3097. E= -.19746129E+02 F= -.24949480E+02 E0= -.24869916E+02  EK=  .52034E+01 SP=  .00E+00 SK=  .00E+00 mag=      1.000
       N       E                     dE             d eps       ncg     rms          rms(c)                                      
DAV:   1     -.249413330628E+02     .81681E-02    -.24571E+00 11832    .812E+00     .904E-03                                     
RMM:   2     -.249477434207E+02    -.64104E-02    -.58054E-03 11055    .523E-02     .463E-03                                     
RMM:   3     -.249488755672E+02    -.11321E-02    -.62375E-05  7843    .846E-03     .381E-03                                     
RMM:   4     -.249494571239E+02    -.58156E-03    -.79265E-06  6127    .578E-03     .178E-03                                     
RMM:   5     -.249496201468E+02    -.16302E-03    -.22131E-06  5206    .422E-03     .940E-04                                     
RMM:   6     -.249497781634E+02    -.15802E-03    -.10525E-06  4589    .356E-03     .478E-04                                     
RMM:   7     -.249498591100E+02    -.80947E-04    -.45381E-06  4539    .421E-03     .160E-04                                     
RMM:   8     -.249498688983E+02    -.97882E-05    -.49142E-07  2831    .284E-03                                                  
   18 T=  3097. E= -.19746400E+02 F= -.24949869E+02 E0= -.24870303E+02  EK=  .52035E+01 SP=  .00E+00 SK=  .00E+00 mag=      1.000
       N       E                     dE             d eps       ncg     rms          rms(c)                                      
DAV:   1     -.249410667118E+02     .87924E-02    -.14350E+00 12920    .749E+00     .846E-03                                     
RMM:   2     -.249490774493E+02    -.80107E-02    -.19697E-02 11736    .106E-01     .333E-03                                     
RMM:   3     -.249495371095E+02    -.45966E-03    -.36607E-04  7899    .149E-02     .229E-03                                     
RMM:   4     -.249495831925E+02    -.46083E-04    -.44282E-05  5655    .629E-03     .133E-03                                     
RMM:   5     -.249498208914E+02    -.23770E-03    -.29711E-06  5197    .406E-03     .469E-04                                     
RMM:   6     -.249499395583E+02    -.11867E-03    -.15774E-06  4585    .367E-03     .233E-04                                     
RMM:   7     -.249499665495E+02    -.26991E-04    -.22615E-07  2459    .253E-03                                                  
   19 T=  3097. E= -.19746379E+02 F= -.24949967E+02 E0= -.24870400E+02  EK=  .52036E+01 SP=  .00E+00 SK=  .00E+00 mag=      1.000
       N       E                     dE             d eps       ncg     rms          rms(c)                                      
DAV:   1     -.249415458551E+02     .83937E-02    -.31295E+00 12440    .835E+00     .825E-03                                     
RMM:   2     -.249492346423E+02    -.76888E-02    -.83282E-03 11009    .748E-02     .324E-03                                     
RMM:   3     -.249491738019E+02     .60840E-04    -.19326E-04  8855    .129E-02     .170E-03                                     
RMM:   4     -.249494737650E+02    -.29996E-03    -.14532E-05  5096    .531E-03     .932E-04                                     
RMM:   5     -.249499222995E+02    -.44853E-03    -.47741E-06  5244    .458E-03     .466E-04                                     
RMM:   6     -.249500621196E+02    -.13982E-03    -.19241E-06  4197    .368E-03     .208E-04                                     
RMM:   7     -.249500875702E+02    -.25451E-04    -.66882E-07  3467    .309E-03                                                  
   20 T=  3097. E= -.19746381E+02 F= -.24950088E+02 E0= -.24870519E+02  EK=  .52037E+01 SP=  .00E+00 SK=  .00E+00 mag=      1.000
       N       E                     dE             d eps       ncg     rms          rms(c)                                      
DAV:   1     -.249385903497E+02     .11472E-01    -.18964E+00 12960    .903E+00     .891E-03                                     
RMM:   2     -.249494036088E+02    -.10813E-01    -.40964E-02 11686    .157E-01     .335E-03                                     
RMM:   3     -.249498214600E+02    -.41785E-03    -.85247E-04  8888    .210E-02     .171E-03                                     
RMM:   4     -.249499586813E+02    -.13722E-03    -.40184E-05  5072    .685E-03     .118E-03                                     
RMM:   5     -.249501404445E+02    -.18176E-03    -.50786E-06  4630    .415E-03     .460E-04                                     
RMM:   6     -.249502154760E+02    -.75032E-04    -.29521E-06  5112    .438E-03     .179E-04                                     
RMM:   7     -.249502207336E+02    -.52576E-05    -.37741E-07  2466    .262E-03                                                  
   21 T=  3097. E= -.19746394E+02 F= -.24950221E+02 E0= -.24870651E+02  EK=  .52038E+01 SP=  .00E+00 SK=  .00E+00 mag=      1.000
       N       E                     dE             d eps       ncg     rms          rms(c)                                      
DAV:   1     -.249426694539E+02     .75460E-02    -.93550E-01 11760    .710E+00     .788E-03                                     
RMM:   2     -.249495752087E+02    -.69058E-02    -.23515E-03 11355    .444E-02     .203E-03                                     
RMM:   3     -.249500160814E+02    -.44087E-03    -.43622E-05  7465    .865E-03     .154E-03                                     
RMM:   4     -.249501941999E+02    -.17812E-03    -.66448E-06  4876    .453E-03     .667E-04                                     
RMM:   5     -.249503188696E+02    -.12467E-03    -.41713E-06  5060    .466E-03     .225E-04                                     
RMM:   6     -.249503300746E+02    -.11205E-04    -.54121E-07  2847    .288E-03                                                  
   22 T=  3097. E= -.19746383E+02 F= -.24950330E+02 E0= -.24870759E+02  EK=  .52039E+01 SP=  .00E+00 SK=  .00E+00 mag=      1.000
       N       E                     dE             d eps       ncg     rms          rms(c)                                      
DAV:   1     -.249426330519E+02     .76858E-02    -.11070E+00 12008    .603E+00     .792E-03                                     
RMM:   2     -.249496506252E+02    -.70176E-02    -.36095E-03 10847    .485E-02     .198E-03                                     
RMM:   3     -.249499853537E+02    -.33473E-03    -.60258E-05  6994    .861E-03     .118E-03                                     
RMM:   4     -.249503112437E+02    -.32589E-03    -.56786E-06  4913    .477E-03     .482E-04                                     
RMM:   5     -.249504427653E+02    -.13152E-03    -.32628E-06  5189    .467E-03     .197E-04                                     
RMM:   6     -.249504585091E+02    -.15744E-04    -.18546E-06  3640    .358E-03                                                  
   23 T=  3097. E= -.19746390E+02 F= -.24950459E+02 E0= -.24870886E+02  EK=  .52041E+01 SP=  .00E+00 SK=  .00E+00 mag=      1.000
       N       E                     dE             d eps       ncg     rms          rms(c)                                      
DAV:   1     -.249395586019E+02     .10884E-01    -.33291E+00 12128    .834E+00     .827E-03                                     
RMM:   2     -.249497580064E+02    -.10199E-01    -.34772E-02 11156    .120E-01     .226E-03                                     
RMM:   3     -.249503491512E+02    -.59114E-03    -.90691E-04  7754    .195E-02     .124E-03                                     
RMM:   4     -.249504630765E+02    -.11393E-03    -.79407E-05  4947    .765E-03     .815E-04                                     
RMM:   5     -.249504861280E+02    -.23052E-04    -.88655E-06  3358    .377E-03                                                  
   24 T=  3097. E= -.19746294E+02 F= -.24950486E+02 E0= -.24870913E+02  EK=  .52042E+01 SP=  .00E+00 SK=  .00E+00 mag=      1.000
       N       E                     dE             d eps       ncg     rms          rms(c)                                      
DAV:   1     -.249411640589E+02     .92990E-02    -.27661E+00 12816    .881E+00     .820E-03                                     
RMM:   2     -.249498407695E+02    -.86767E-02    -.19443E-02 11275    .935E-02     .226E-03                                     
RMM:   3     -.249503701846E+02    -.52942E-03    -.24378E-04  7559    .130E-02     .133E-03                                     
RMM:   4     -.249504792198E+02    -.10904E-03    -.22709E-05  5295    .584E-03     .807E-04                                     
RMM:   5     -.249506094791E+02    -.13026E-03    -.37853E-06  5193    .430E-03     .309E-04                                     
RMM:   6     -.249506796056E+02    -.70126E-04    -.17752E-06  4123    .356E-03     .148E-04                                     
RMM:   7     -.249507007022E+02    -.21097E-04    -.27678E-06  4051    .372E-03                                                  
   25 T=  3097. E= -.19746384E+02 F= -.24950701E+02 E0= -.24871126E+02  EK=  .52043E+01 SP=  .00E+00 SK=  .00E+00 mag=      1.000
       N       E                     dE             d eps       ncg     rms          rms(c)                                      
DAV:   1     -.249346509469E+02     .16029E-01    -.10631E+00 12368    .704E+00     .873E-03                                     
RMM:   2     -.249499771865E+02    -.15326E-01    -.88225E-02 11259    .115E-01     .296E-03                                     
RMM:   3     -.249505118193E+02    -.53463E-03    -.20166E-03  8494    .193E-02     .196E-03                                     
RMM:   4     -.249506340033E+02    -.12218E-03    -.16687E-04  4543    .626E-03     .139E-03                                     
RMM:   5     -.249507415983E+02    -.10760E-03    -.70106E-06  3429    .361E-03     .682E-04                                     
RMM:   6     -.249508178370E+02    -.76239E-04    -.42777E-06  4863    .482E-03     .235E-04                                     
RMM:   7     -.249508204699E+02    -.26329E-05    -.25511E-07  2267    .275E-03                                                  
   26 T=  3097. E= -.19746380E+02 F= -.24950820E+02 E0= -.24871244E+02  EK=  .52044E+01 SP=  .00E+00 SK=  .00E+00 mag=      1.000
       N       E                     dE             d eps       ncg     rms          rms(c)                                      
DAV:   1     -.249424782194E+02     .83396E-02    -.73186E-01 12240    .624E+00     .805E-03                                     
RMM:   2     -.249500293415E+02    -.75511E-02    -.99572E-03 10869    .757E-02     .287E-03                                     
RMM:   3     -.249506163953E+02    -.58705E-03    -.15362E-04  6880    .112E-02     .165E-03                                     
RMM:   4     -.249508721069E+02    -.25571E-03    -.16667E-05  5024    .606E-03     .648E-04                                     
RMM:   5     -.249509186171E+02    -.46510E-04    -.30891E-06  4384    .424E-03     .310E-04                                     
RMM:   6     -.249509431993E+02    -.24582E-04    -.15010E-06  3663    .352E-03                                                  
   27 T=  3097. E= -.19746378E+02 F= -.24950943E+02 E0= -.24871365E+02  EK=  .52046E+01 SP=  .00E+00 SK=  .00E+00 mag=      1.000
       N       E                     dE             d eps       ncg     rms          rms(c)                                      
DAV:   1     -.249436347633E+02     .72839E-02    -.94349E-01 11584    .599E+00     .788E-03                                     
RMM:   2     -.249502987503E+02    -.66640E-02    -.24536E-04 10433    .237E-02     .251E-03                                     
RMM:   3     -.249506006495E+02    -.30190E-03    -.85273E-06  6684    .662E-03     .179E-03                                     
RMM:   4     -.249508965950E+02    -.29595E-03    -.30620E-06  5381    .460E-03     .682E-04                                     
RMM:   5     -.249509665121E+02    -.69917E-04    -.24151E-06  4215    .384E-03     .374E-04                                     
RMM:   6     -.249510401555E+02    -.73643E-04    -.28901E-06  4456    .422E-03     .269E-04                                     
RMM:   7     -.249510660635E+02    -.25908E-04    -.14735E-06  3696    .350E-03                                                  
   28 T=  3097. E= -.19746375E+02 F= -.24951066E+02 E0= -.24871487E+02  EK=  .52047E+01 SP=  .00E+00 SK=  .00E+00 mag=      1.000
       N       E                     dE             d eps       ncg     rms          rms(c)                                      
DAV:   1     -.249423134697E+02     .87267E-02    -.17067E+00 11992    .610E+00     .786E-03                                     
RMM:   2     -.249504620462E+02    -.81486E-02    -.14811E-02 10731    .743E-02     .285E-03                                     
RMM:   3     -.249509164767E+02    -.45443E-03    -.16902E-04  7480    .112E-02     .146E-03                                     
RMM:   4     -.249510593053E+02    -.14283E-03    -.13644E-05  4932    .497E-03     .701E-04                                     
RMM:   5     -.249511568321E+02    -.97527E-04    -.38220E-06  5320    .463E-03     .233E-04                                     
RMM:   6     -.249511892135E+02    -.32381E-04    -.22814E-06  4065    .388E-03     .134E-04                                     
RMM:   7     -.249511980069E+02    -.87934E-05    -.14301E-06  3365    .337E-03                                                  
   29 T=  3097. E= -.19746381E+02 F= -.24951198E+02 E0= -.24871617E+02  EK=  .52048E+01 SP=  .00E+00 SK=  .00E+00 mag=      1.000
       N       E                     dE             d eps       ncg     rms          rms(c)                                      
DAV:   1     -.249438584882E+02     .73307E-02    -.16159E+00 11912    .721E+00     .782E-03                                     
RMM:   2     -.249505880844E+02    -.67296E-02    -.50051E-04 10886    .316E-02     .200E-03                                     
RMM:   3     -.249509190347E+02    -.33095E-03    -.13809E-05  7679    .835E-03     .171E-03                                     
RMM:   4     -.249511925136E+02    -.27348E-03    -.25646E-06  4346    .426E-03     .579E-04                                     
RMM:   5     -.249512595324E+02    -.67019E-04    -.30950E-06  5025    .491E-03     .267E-04                                     
RMM:   6     -.249513023977E+02    -.42865E-04    -.17907E-06  3485    .350E-03     .118E-04                                     
RMM:   7     -.249513213928E+02    -.18995E-04    -.90772E-06  4762    .516E-03                                                  
   30 T=  3097. E= -.19746378E+02 F= -.24951321E+02 E0= -.24871740E+02  EK=  .52049E+01 SP=  .00E+00 SK=  .00E+00 mag=      1.000
       N       E                     dE             d eps       ncg     rms          rms(c)                                      
DAV:   1     -.249243419388E+02     .26960E-01    -.22960E+00 13672    .842E+00     .139E-02                                     
RMM:   2     -.249502207872E+02    -.25879E-01    -.19817E-01 11924    .333E-01     .584E-03                                     
RMM:   3     -.249508567456E+02    -.63596E-03    -.25692E-03 10530    .400E-02     .259E-03                                     
RMM:   4     -.249512001180E+02    -.34337E-03    -.21493E-04  5689    .101E-02     .204E-03                                     
RMM:   5     -.249513202043E+02    -.12009E-03    -.92896E-06  4340    .434E-03     .142E-03                                     
RMM:   6     -.249514186423E+02    -.98438E-04    -.75353E-06  5616    .552E-03     .508E-04                                     
RMM:   7     -.249514200727E+02    -.14304E-05    -.43420E-07  2684    .262E-03                                                  
   31 T=  3098. E= -.19746350E+02 F= -.24951420E+02 E0= -.24871837E+02  EK=  .52051E+01 SP=  .00E+00 SK=  .00E+00 mag=      1.000
       N       E                     dE             d eps       ncg     rms          rms(c)                                      
DAV:   1     -.249364105422E+02     .15008E-01    -.35298E+00 12440    .751E+00     .944E-03                                     
RMM:   2     -.249507008059E+02    -.14290E-01    -.80682E-02 10959    .114E-01     .409E-03                                     
RMM:   3     -.249507503674E+02    -.49562E-04    -.12453E-03  7587    .195E-02     .319E-03                                     
RMM:   4     -.249511413346E+02    -.39097E-03    -.67299E-05  5066    .694E-03     .195E-03                                     
RMM:   5     -.249514024058E+02    -.26107E-03    -.13367E-05  6073    .601E-03     .139E-03                                     
RMM:   6     -.249515425387E+02    -.14013E-03    -.57007E-06  5461    .514E-03     .683E-04                                     
RMM:   7     -.249515586166E+02    -.16078E-04    -.17009E-06  3497    .333E-03                                                  
   32 T=  3098. E= -.19746363E+02 F= -.24951559E+02 E0= -.24871974E+02  EK=  .52052E+01 SP=  .00E+00 SK=  .00E+00 mag=      1.000
       N       E                     dE             d eps       ncg     rms          rms(c)                                      
DAV:   1     -.249327410152E+02     .18802E-01    -.20872E+00 13088    .771E+00     .909E-03                                     
RMM:   2     -.249512238184E+02    -.18483E-01    -.11957E-01 11444    .173E-01     .374E-03                                     
RMM:   3     -.249513117432E+02    -.87925E-04    -.23661E-03  8549    .291E-02     .245E-03                                     
RMM:   4     -.249514073794E+02    -.95636E-04    -.17850E-04  4835    .914E-03     .190E-03                                     
RMM:   5     -.249515013931E+02    -.94014E-04    -.15540E-05  4659    .458E-03     .114E-03                                     
RMM:   6     -.249515982078E+02    -.96815E-04    -.15838E-06  4858    .396E-03     .656E-04                                     
RMM:   7     -.249516561177E+02    -.57910E-04    -.21719E-06  4284    .400E-03     .485E-04                                     
RMM:   8     -.249516939681E+02    -.37850E-04    -.43293E-06  4660    .506E-03     .144E-04                                     
RMM:   9     -.249516976101E+02    -.36420E-05    -.66963E-07  2874    .297E-03                                                  
   33 T=  3098. E= -.19746377E+02 F= -.24951698E+02 E0= -.24872112E+02  EK=  .52053E+01 SP=  .00E+00 SK=  .00E+00 mag=      1.000
       N       E                     dE             d eps       ncg     rms          rms(c)                                      
DAV:   1     -.249441111570E+02     .75828E-02    -.82648E-01 12832    .681E+00     .794E-03                                     
RMM:   2     -.249509270458E+02    -.68159E-02    -.34559E-03 11219    .533E-02     .315E-03                                     
RMM:   3     -.249514108997E+02    -.48385E-03    -.71388E-05  7967    .129E-02     .206E-03                                     
RMM:   4     -.249514564789E+02    -.45579E-04    -.38391E-06  4663    .430E-03     .161E-03                                     
RMM:   5     -.249516773417E+02    -.22086E-03    -.32857E-06  5022    .438E-03     .620E-04                                     
RMM:   6     -.249518008092E+02    -.12347E-03    -.74321E-06  5439    .589E-03     .244E-04                                     
RMM:   7     -.249518145197E+02    -.13710E-04    -.85820E-06  4687    .535E-03                                                  
   34 T=  3098. E= -.19746370E+02 F= -.24951815E+02 E0= -.24872228E+02  EK=  .52054E+01 SP=  .00E+00 SK=  .00E+00 mag=       .999
       N       E                     dE             d eps       ncg     rms          rms(c)                                      
DAV:   1     -.249445284943E+02     .72723E-02    -.20252E+00 11928    .721E+00     .780E-03                                     
RMM:   2     -.249511658359E+02    -.66373E-02    -.37608E-04 10822    .282E-02     .286E-03                                     
RMM:   3     -.249515198519E+02    -.35402E-03    -.14560E-05  7321    .736E-03     .167E-03                                     
RMM:   4     -.249517222127E+02    -.20236E-03    -.33104E-06  5981    .474E-03     .740E-04                                     
RMM:   5     -.249518709252E+02    -.14871E-03    -.49911E-06  4862    .472E-03     .379E-04                                     
RMM:   6     -.249519137904E+02    -.42865E-04    -.29510E-06  4300    .453E-03     .146E-04                                     
RMM:   7     -.249519338986E+02    -.20108E-04    -.37840E-06  4070    .423E-03                                                  
   35 T=  3098. E= -.19746364E+02 F= -.24951934E+02 E0= -.24872346E+02  EK=  .52056E+01 SP=  .00E+00 SK=  .00E+00 mag=       .999
       N       E                     dE             d eps       ncg     rms          rms(c)                                      
DAV:   1     -.249445729930E+02     .73408E-02    -.11886E+00 12104    .733E+00     .776E-03                                     
RMM:   2     -.249513695947E+02    -.67966E-02    -.10282E-03 11508    .441E-02     .354E-03                                     
RMM:   3     -.249517500706E+02    -.38048E-03    -.23947E-05  7596    .916E-03     .274E-03                                     
RMM:   4     -.249519172869E+02    -.16722E-03    -.37885E-06  5852    .484E-03     .110E-03                                     
RMM:   5     -.249520059414E+02    -.88654E-04    -.45777E-06  6097    .541E-03     .331E-04                                     
RMM:   6     -.249520306564E+02    -.24715E-04    -.88830E-07  3177    .290E-03                                                  
   36 T=  3098. E= -.19746335E+02 F= -.24952031E+02 E0= -.24872441E+02  EK=  .52057E+01 SP=  .00E+00 SK=  .00E+00 mag=       .999
       N       E                     dE             d eps       ncg     rms          rms(c)                                      
DAV:   1     -.249440757469E+02     .79302E-02    -.87434E-01 12488    .720E+00     .783E-03                                     
RMM:   2     -.249515536827E+02    -.74779E-02    -.76426E-03 11180    .631E-02     .162E-03                                     
RMM:   3     -.249520482638E+02    -.49458E-03    -.69603E-05  7336    .101E-02     .978E-04                                     
RMM:   4     -.249521368277E+02    -.88564E-04    -.96388E-06  5848    .599E-03     .559E-04                                     
RMM:   5     -.249521669173E+02    -.30090E-04    -.40821E-06  4360    .423E-03     .222E-04                                     
RMM:   6     -.249521905113E+02    -.23594E-04    -.22271E-05  5347    .698E-03                                                  
   37 T=  3098. E= -.19746369E+02 F= -.24952191E+02 E0= -.24872600E+02  EK=  .52058E+01 SP=  .00E+00 SK=  .00E+00 mag=       .999
       N       E                     dE             d eps       ncg     rms          rms(c)                                      
DAV:   1     -.249449922824E+02     .71746E-02    -.88630E-01 13160    .705E+00     .781E-03                                     
RMM:   2     -.249517336369E+02    -.67414E-02    -.11500E-03 11796    .467E-02     .163E-03                                     
RMM:   3     -.249522322507E+02    -.49861E-03    -.40564E-05  7538    .105E-02     .944E-04                                     
RMM:   4     -.249522958400E+02    -.63589E-04    -.67112E-06  5458    .516E-03     .477E-04                                     
RMM:   5     -.249523082067E+02    -.12367E-04    -.19128E-06  3805    .368E-03                                                  
   38 T=  3098. E= -.19746362E+02 F= -.24952308E+02 E0= -.24872716E+02  EK=  .52059E+01 SP=  .00E+00 SK=  .00E+00 mag=       .999
       N       E                     dE             d eps       ncg     rms          rms(c)                                      
DAV:   1     -.249451810961E+02     .71147E-02    -.11281E+00 12416    .622E+00     .783E-03                                     
RMM:   2     -.249518539504E+02    -.66729E-02    -.62114E-04 10980    .307E-02     .144E-03                                     
RMM:   3     -.249522923817E+02    -.43843E-03    -.18249E-05  7271    .845E-03     .838E-04                                     
RMM:   4     -.249523966324E+02    -.10425E-03    -.11114E-05  5468    .566E-03     .313E-04                                     
RMM:   5     -.249524321099E+02    -.35477E-04    -.11986E-05  5215    .605E-03     .173E-04                                     
RMM:   6     -.249524356415E+02    -.35317E-05    -.66959E-07  2941    .303E-03                                                  
   39 T=  3098. E= -.19746366E+02 F= -.24952436E+02 E0= -.24872842E+02  EK=  .52061E+01 SP=  .00E+00 SK=  .00E+00 mag=       .999
       N       E                     dE             d eps       ncg     rms          rms(c)                                      
DAV:   1     -.249450812828E+02     .73508E-02    -.19508E+00 12688    .761E+00     .781E-03                                     
RMM:   2     -.249517265808E+02    -.66453E-02    -.10209E-03 11525    .417E-02     .185E-03                                     
RMM:   3     -.249522114031E+02    -.48482E-03    -.34948E-05  7559    .103E-02     .107E-03                                     
RMM:   4     -.249523882584E+02    -.17686E-03    -.93702E-06  5611    .593E-03     .557E-04                                     
RMM:   5     -.249524916122E+02    -.10335E-03    -.16297E-05  5610    .620E-03     .253E-04                                     
RMM:   6     -.249525343317E+02    -.42720E-04    -.24628E-05  5205    .663E-03     .169E-04                                     
RMM:   7     -.249525461257E+02    -.11794E-04    -.13841E-05  4573    .549E-03                                                  
   40 T=  3098. E= -.19746351E+02 F= -.24952546E+02 E0= -.24872952E+02  EK=  .52062E+01 SP=  .00E+00 SK=  .00E+00 mag=       .999
       N       E                     dE             d eps       ncg     rms          rms(c)                                      
DAV:   1     -.249444244407E+02     .81099E-02    -.14283E+00 13544    .743E+00     .786E-03                                     
RMM:   2     -.249520366666E+02    -.76122E-02    -.96269E-03 11570    .857E-02     .213E-03                                     
RMM:   3     -.249524852834E+02    -.44862E-03    -.19742E-04  8153    .144E-02     .108E-03                                     
RMM:   4     -.249525744024E+02    -.89119E-04    -.25916E-05  5793    .691E-03     .668E-04                                     
RMM:   5     -.249526471033E+02    -.72701E-04    -.34848E-05  6119    .781E-03     .325E-04                                     
RMM:   6     -.249526703167E+02    -.23213E-04    -.89939E-06  4857    .571E-03                                                  
   41 T=  3098. E= -.19746351E+02 F= -.24952670E+02 E0= -.24873075E+02  EK=  .52063E+01 SP=  .00E+00 SK=  .00E+00 mag=       .999
       N       E                     dE             d eps       ncg     rms          rms(c)                                      
DAV:   1     -.249435086393E+02     .91385E-02    -.12422E+00 13384    .591E+00     .815E-03                                     
RMM:   2     -.249522949680E+02    -.87863E-02    -.21127E-02 11489    .989E-02     .188E-03                                     
RMM:   3     -.249527292801E+02    -.43431E-03    -.47036E-04  7773    .161E-02     .104E-03                                     
RMM:   4     -.249527573703E+02    -.28090E-04    -.49969E-05  5669    .789E-03                                                  
   42 T=  3098. E= -.19746317E+02 F= -.24952757E+02 E0= -.24873161E+02  EK=  .52064E+01 SP=  .00E+00 SK=  .00E+00 mag=       .999
       N       E                     dE             d eps       ncg     rms          rms(c)                                      
DAV:   1     -.249446892703E+02     .80400E-02    -.99097E-01 13096    .581E+00     .820E-03                                     
RMM:   2     -.249521704430E+02    -.74812E-02    -.88628E-03 11343    .677E-02     .230E-03                                     
RMM:   3     -.249526055699E+02    -.43513E-03    -.16555E-04  7426    .116E-02     .155E-03                                     
RMM:   4     -.249527583437E+02    -.15277E-03    -.18381E-05  5293    .652E-03     .808E-04                                     
RMM:   5     -.249528675298E+02    -.10919E-03    -.14248E-05  5790    .685E-03     .279E-04                                     
RMM:   6     -.249529113410E+02    -.43811E-04    -.40130E-05  5530    .908E-03     .163E-04                                     
RMM:   7     -.249529177579E+02    -.64169E-05    -.57291E-06  4212    .474E-03                                                  
   43 T=  3098. E= -.19746357E+02 F= -.24952918E+02 E0= -.24873320E+02  EK=  .52066E+01 SP=  .00E+00 SK=  .00E+00 mag=       .998
       N       E                     dE             d eps       ncg     rms          rms(c)                                      
DAV:   1     -.249455572605E+02     .73541E-02    -.63397E-01 13448    .654E+00     .779E-03                                     
RMM:   2     -.249522472402E+02    -.66900E-02    -.55907E-03 11569    .642E-02     .262E-03                                     
RMM:   3     -.249527772089E+02    -.52997E-03    -.12493E-04  7397    .158E-02     .155E-03                                     
RMM:   4     -.249529572543E+02    -.18005E-03    -.12081E-05  5218    .588E-03     .737E-04                                     
RMM:   5     -.249530150236E+02    -.57769E-04    -.22865E-05  5343    .728E-03     .305E-04                                     
RMM:   6     -.249530305370E+02    -.15513E-04    -.19768E-05  5214    .704E-03                                                  
   44 T=  3098. E= -.19746349E+02 F= -.24953031E+02 E0= -.24873431E+02  EK=  .52067E+01 SP=  .00E+00 SK=  .00E+00 mag=       .998
       N       E                     dE             d eps       ncg     rms          rms(c)                                      
DAV:   1     -.249459625497E+02     .70525E-02    -.85632E-01 12960    .576E+00     .781E-03                                     
RMM:   2     -.249526529643E+02    -.66904E-02    -.48760E-04 11453    .333E-02     .206E-03                                     
RMM:   3     -.249530144659E+02    -.36150E-03    -.22075E-05  7607    .987E-03     .145E-03                                     
RMM:   4     -.249531150617E+02    -.10060E-03    -.30001E-05  5835    .734E-03     .799E-04                                     
RMM:   5     -.249531326399E+02    -.17578E-04    -.20413E-05  5293    .726E-03                                                  
   45 T=  3099. E= -.19746334E+02 F= -.24953133E+02 E0= -.24873532E+02  EK=  .52068E+01 SP=  .00E+00 SK=  .00E+00 mag=       .998
       N       E                     dE             d eps       ncg     rms          rms(c)                                      
DAV:   1     -.249459264300E+02     .71886E-02    -.62283E-01 13392    .696E+00     .790E-03                                     
RMM:   2     -.249527079316E+02    -.67815E-02    -.20398E-03 11783    .510E-02     .236E-03                                     
RMM:   3     -.249529844073E+02    -.27648E-03    -.51420E-05  8009    .117E-02     .143E-03                                     
RMM:   4     -.249532158541E+02    -.23145E-03    -.50544E-05  6923    .103E-02     .516E-04                                     
RMM:   5     -.249532580447E+02    -.42191E-04    -.40905E-05  6009    .976E-03     .241E-04                                     
RMM:   6     -.249532669598E+02    -.89151E-05    -.52944E-06  4047    .436E-03                                                  
   46 T=  3099. E= -.19746351E+02 F= -.24953267E+02 E0= -.24873665E+02  EK=  .52069E+01 SP=  .00E+00 SK=  .00E+00 mag=       .998
       N       E                     dE             d eps       ncg     rms          rms(c)                                      
DAV:   1     -.249452962738E+02     .79618E-02    -.27425E+00 13064    .811E+00     .788E-03                                     
RMM:   2     -.249528315486E+02    -.75353E-02    -.12691E-02 11729    .728E-02     .204E-03                                     
RMM:   3     -.249532793137E+02    -.44777E-03    -.26129E-04  7820    .148E-02     .111E-03                                     
RMM:   4     -.249533615936E+02    -.82280E-04    -.18116E-05  4796    .520E-03     .646E-04                                     
RMM:   5     -.249533844331E+02    -.22839E-04    -.10721E-05  5115    .524E-03                                                  
   47 T=  3099. E= -.19746352E+02 F= -.24953384E+02 E0= -.24873782E+02  EK=  .52070E+01 SP=  .00E+00 SK=  .00E+00 mag=       .998
       N       E                     dE             d eps       ncg     rms          rms(c)                                      
DAV:   1     -.249444173500E+02     .89442E-02    -.12600E+00 14600    .771E+00     .804E-03                                     
RMM:   2     -.249530514674E+02    -.86341E-02    -.22183E-02 12465    .135E-01     .164E-03                                     
RMM:   3     -.249534527039E+02    -.40124E-03    -.35835E-04  8385    .195E-02     .988E-04                                     
RMM:   4     -.249534819338E+02    -.29230E-04    -.35987E-05  5786    .758E-03                                                  
   48 T=  3099. E= -.19746336E+02 F= -.24953482E+02 E0= -.24873878E+02  EK=  .52071E+01 SP=  .00E+00 SK=  .00E+00 mag=       .998
       N       E                     dE             d eps       ncg     rms          rms(c)                                      
DAV:   1     -.249461886114E+02     .72641E-02    -.11062E+00 13464    .701E+00     .795E-03                                     
RMM:   2     -.249531341619E+02    -.69456E-02    -.57463E-03 11681    .578E-02     .239E-03                                     
RMM:   3     -.249534899697E+02    -.35581E-03    -.15574E-04  8373    .137E-02     .116E-03                                     
RMM:   4     -.249535448750E+02    -.54905E-04    -.13353E-05  5481    .574E-03     .745E-04                                     
RMM:   5     -.249535785782E+02    -.33703E-04    -.13187E-05  5737    .668E-03     .347E-04                                     
RMM:   6     -.249536038366E+02    -.25258E-04    -.77295E-06  5145    .546E-03                                                  
   49 T=  3099. E= -.19746345E+02 F= -.24953604E+02 E0= -.24873999E+02  EK=  .52073E+01 SP=  .00E+00 SK=  .00E+00 mag=       .997
       N       E                     dE             d eps       ncg     rms          rms(c)                                      
DAV:   1     -.249466468337E+02     .69317E-02    -.11844E+00 13648    .695E+00     .774E-03                                     
RMM:   2     -.249532037281E+02    -.65569E-02    -.22603E-03 12162    .525E-02     .173E-03                                     
RMM:   3     -.249536477892E+02    -.44406E-03    -.13288E-04  8062    .140E-02     .999E-04                                     
RMM:   4     -.249536974204E+02    -.49631E-04    -.26760E-05  5686    .648E-03     .742E-04                                     
RMM:   5     -.249536906737E+02     .67467E-05    -.14258E-05  5445    .658E-03                                                  
   50 T=  3099. E= -.19746320E+02 F= -.24953691E+02 E0= -.24874085E+02  EK=  .52074E+01 SP=  .00E+00 SK=  .00E+00 mag=       .997
       N       E                     dE             d eps       ncg     rms          rms(c)                                      
DAV:   1     -.249402147991E+02     .13483E-01    -.16960E+00 14272    .575E+00     .874E-03                                     
RMM:   2     -.249533066909E+02    -.13092E-01    -.69229E-02 12389    .188E-01     .256E-03                                     
RMM:   3     -.249537703574E+02    -.46367E-03    -.12289E-03  8655    .254E-02     .147E-03                                     
RMM:   4     -.249538048274E+02    -.34470E-04    -.11615E-04  5810    .900E-03     .110E-03                                     
RMM:   5     -.249538138711E+02    -.90438E-05    -.77475E-06  4374    .419E-03                                                  
   51 T=  3099. E= -.19746332E+02 F= -.24953814E+02 E0= -.24874207E+02  EK=  .52075E+01 SP=  .00E+00 SK=  .00E+00 mag=       .997
       N       E                     dE             d eps       ncg     rms          rms(c)                                      
DAV:   1     -.249474092053E+02     .63956E-02    -.19825E+00 13680    .702E+00     .783E-03                                     
RMM:   2     -.249534610250E+02    -.60518E-02    -.13265E-03 12225    .493E-02     .220E-03                                     
RMM:   3     -.249538576877E+02    -.39666E-03    -.72551E-05  8147    .129E-02     .110E-03                                     
RMM:   4     -.249538990269E+02    -.41339E-04    -.12631E-05  5970    .674E-03     .508E-04                                     
RMM:   5     -.249539149140E+02    -.15887E-04    -.12396E-06  3511    .341E-03                                                  
   52 T=  3099. E= -.19746326E+02 F= -.24953915E+02 E0= -.24874306E+02  EK=  .52076E+01 SP=  .00E+00 SK=  .00E+00 mag=       .997
       N       E                     dE             d eps       ncg     rms          rms(c)                                      
DAV:   1     -.249422558133E+02     .11643E-01    -.14619E+00 14232    .829E+00     .105E-02                                     
RMM:   2     -.249533679269E+02    -.11112E-01    -.50678E-02 12705    .142E-01     .362E-03                                     
RMM:   3     -.249539414118E+02    -.57348E-03    -.62515E-04  9325    .214E-02     .231E-03                                     
RMM:   4     -.249539923907E+02    -.50979E-04    -.56376E-05  6066    .834E-03     .169E-03                                     
RMM:   5     -.249540161371E+02    -.23746E-04    -.17742E-05  5234    .554E-03                                                  
   53 T=  3099. E= -.19746319E+02 F= -.24954016E+02 E0= -.24874407E+02  EK=  .52077E+01 SP=  .00E+00 SK=  .00E+00 mag=       .996
       N       E                     dE             d eps       ncg     rms          rms(c)                                      
DAV:   1     -.249387633045E+02     .15229E-01    -.23695E+00 13896    .670E+00     .869E-03                                     
RMM:   2     -.249540312489E+02    -.15268E-01    -.88350E-02 11938    .942E-02     .265E-03                                     
RMM:   3     -.249538534723E+02     .17778E-03    -.18594E-03  8486    .218E-02     .182E-03                                     
RMM:   4     -.249538718357E+02    -.18363E-04    -.14523E-04  6777    .123E-02                                                  
   54 T=  3099. E= -.19746072E+02 F= -.24953872E+02 E0= -.24874263E+02  EK=  .52078E+01 SP=  .00E+00 SK=  .00E+00 mag=       .996
       N       E                     dE             d eps       ncg     rms          rms(c)                                      
DAV:   1     -.249358847366E+02     .17969E-01    -.29863E+00 13248    .657E+00     .126E-02                                     
RMM:   2     -.249536274622E+02    -.17743E-01    -.11482E-01 12018    .146E-01     .601E-03                                     
RMM:   3     -.249537048017E+02    -.77339E-04    -.18346E-03  9779    .263E-02     .379E-03                                     
RMM:   4     -.249537817667E+02    -.76965E-04    -.10665E-04  5106    .729E-03     .297E-03                                     
RMM:   5     -.249539653364E+02    -.18357E-03    -.34241E-05  6547    .925E-03     .132E-03                                     
RMM:   6     -.249541745131E+02    -.20918E-03    -.21977E-04  6886    .187E-02     .736E-04                                     
RMM:   7     -.249541939654E+02    -.19452E-04    -.24315E-05  5107    .678E-03                                                  
   55 T=  3099. E= -.19746292E+02 F= -.24954194E+02 E0= -.24874583E+02  EK=  .52079E+01 SP=  .00E+00 SK=  .00E+00 mag=       .996
       N       E                     dE             d eps       ncg     rms          rms(c)                                      
DAV:   1     -.249484270029E+02     .57475E-02    -.43054E-01 14328    .597E+00     .780E-03                                     
RMM:   2     -.249538314371E+02    -.54044E-02    -.17521E-03 12349    .623E-02     .308E-03                                     
RMM:   3     -.249542600936E+02    -.42866E-03    -.22305E-04  8330    .194E-02     .192E-03                                     
RMM:   4     -.249543015630E+02    -.41469E-04    -.92633E-06  5928    .666E-03     .975E-04                                     
RMM:   5     -.249543204257E+02    -.18863E-04    -.52449E-06  4358    .419E-03                                                  
   56 T=  3099. E= -.19746314E+02 F= -.24954320E+02 E0= -.24874708E+02  EK=  .52080E+01 SP=  .00E+00 SK=  .00E+00 mag=       .995
       N       E                     dE             d eps       ncg     rms          rms(c)                                      
DAV:   1     -.249481425043E+02     .61591E-02    -.14978E+00 13936    .612E+00     .818E-03                                     
RMM:   2     -.249540943665E+02    -.59519E-02    -.33339E-03 12322    .639E-02     .333E-03                                     
RMM:   3     -.249542320297E+02    -.13766E-03    -.80044E-05  8127    .142E-02     .251E-03                                     
RMM:   4     -.249542329554E+02    -.92579E-06    -.16822E-05  6774    .683E-03                                                  
   57 T=  3099. E= -.19746127E+02 F= -.24954233E+02 E0= -.24874621E+02  EK=  .52081E+01 SP=  .00E+00 SK=  .00E+00 mag=       .995
       N       E                     dE             d eps       ncg     rms          rms(c)                                      
DAV:   1     -.249470829820E+02     .71490E-02    -.67453E-01 13816    .528E+00     .813E-03                                     
RMM:   2     -.249532052495E+02    -.61223E-02    -.52931E-04 11914    .464E-02     .335E-03                                     
RMM:   3     -.249539477085E+02    -.74246E-03    -.26487E-04  8942    .176E-02     .197E-03                                     
RMM:   4     -.249544658662E+02    -.51816E-03    -.60616E-04  8956    .268E-02     .821E-04                                     
RMM:   5     -.249544937573E+02    -.27891E-04    -.29796E-05  5615    .802E-03                                                  
   58 T=  3099. E= -.19746289E+02 F= -.24954494E+02 E0= -.24874879E+02  EK=  .52082E+01 SP=  .00E+00 SK=  .00E+00 mag=       .995
       N       E                     dE             d eps       ncg     rms          rms(c)                                      
DAV:   1     -.249425284695E+02     .11937E-01    -.16394E+00 14608    .421E+00     .869E-03                                     
RMM:   2     -.249540796034E+02    -.11551E-01    -.63689E-02 12067    .133E-01     .271E-03                                     
RMM:   3     -.249544464908E+02    -.36689E-03    -.10890E-03  7644    .228E-02     .179E-03                                     
RMM:   4     -.249545094462E+02    -.62955E-04    -.67862E-05  5324    .745E-03     .140E-03                                     
RMM:   5     -.249545913297E+02    -.81884E-04    -.71604E-05  5926    .911E-03     .820E-04                                     
RMM:   6     -.249546231960E+02    -.31866E-04    -.48048E-05  6124    .774E-03     .423E-04                                     
RMM:   7     -.249546278229E+02    -.46269E-05    -.37514E-06  3505    .328E-03                                                  
   59 T=  3099. E= -.19746321E+02 F= -.24954628E+02 E0= -.24875012E+02  EK=  .52083E+01 SP=  .00E+00 SK=  .00E+00 mag=       .994
       N       E                     dE             d eps       ncg     rms          rms(c)                                      
DAV:   1     -.249412827243E+02     .13340E-01    -.61513E-01 14016    .378E+00     .123E-02                                     
RMM:   2     -.249540438019E+02    -.12761E-01    -.78626E-02 12114    .160E-01     .566E-03                                     
RMM:   3     -.249544742631E+02    -.43046E-03    -.15242E-03  9802    .243E-02     .307E-03                                     
RMM:   4     -.249546730624E+02    -.19880E-03    -.29883E-04  7094    .202E-02     .238E-03                                     
RMM:   5     -.249546923405E+02    -.19278E-04    -.20328E-05  5273    .518E-03                                                  
   60 T=  3100. E= -.19746284E+02 F= -.24954692E+02 E0= -.24875075E+02  EK=  .52084E+01 SP=  .00E+00 SK=  .00E+00 mag=       .994
       N       E                     dE             d eps       ncg     rms          rms(c)                                      
DAV:   1     -.249491881724E+02     .54849E-02    -.11533E+00 13736    .510E+00     .831E-03                                     
RMM:   2     -.249546821933E+02    -.54940E-02    -.25843E-03 12623    .611E-02     .398E-03                                     
RMM:   3     -.249547522499E+02    -.70057E-04    -.31127E-05  8437    .100E-02     .216E-03                                     
RMM:   4     -.249547737941E+02    -.21544E-04    -.10459E-05  5890    .519E-03                                                  
   61 T=  3100. E= -.19746262E+02 F= -.24954774E+02 E0= -.24875155E+02  EK=  .52085E+01 SP=  .00E+00 SK=  .00E+00 mag=       .993
       N       E                     dE             d eps       ncg     rms          rms(c)                                      
DAV:   1     -.249486896634E+02     .60626E-02    -.20898E+00 13944    .600E+00     .843E-03                                     
RMM:   2     -.249543980248E+02    -.57084E-02    -.23140E-03 12597    .632E-02     .381E-03                                     
RMM:   3     -.249546683724E+02    -.27035E-03    -.35375E-05  8225    .111E-02     .283E-03                                     
RMM:   4     -.249548230651E+02    -.15469E-03    -.66113E-06  6962    .678E-03     .171E-03                                     
RMM:   5     -.249548696193E+02    -.46554E-04    -.96190E-06  5626    .681E-03     .769E-04                                     
RMM:   6     -.249548883455E+02    -.18726E-04    -.11644E-05  4313    .434E-03                                                  
   62 T=  3100. E= -.19746276E+02 F= -.24954888E+02 E0= -.24875269E+02  EK=  .52086E+01 SP=  .00E+00 SK=  .00E+00 mag=       .993
       N       E                     dE             d eps       ncg     rms          rms(c)                                      
DAV:   1     -.249491492053E+02     .57204E-02    -.11531E+00 14760    .585E+00     .766E-03                                     
RMM:   2     -.249545056236E+02    -.53564E-02    -.89759E-03 12753    .105E-01     .258E-03                                     
RMM:   3     -.249547413722E+02    -.23575E-03    -.10725E-04  7651    .107E-02     .147E-03                                     
RMM:   4     -.249549682423E+02    -.22687E-03    -.68420E-05  6341    .108E-02     .753E-04                                     
RMM:   5     -.249550160766E+02    -.47834E-04    -.44826E-05  5825    .951E-03     .313E-04                                     
RMM:   6     -.249550206220E+02    -.45453E-05    -.35740E-06  3430    .334E-03                                                  
   63 T=  3100. E= -.19746310E+02 F= -.24955021E+02 E0= -.24875400E+02  EK=  .52087E+01 SP=  .00E+00 SK=  .00E+00 mag=       .992
       N       E                     dE             d eps       ncg     rms          rms(c)                                      
DAV:   1     -.249498567088E+02     .51594E-02    -.14050E+00 13904    .548E+00     .829E-03                                     
RMM:   2     -.249548924845E+02    -.50358E-02    -.34091E-03 12779    .812E-02     .326E-03                                     
RMM:   3     -.249550761684E+02    -.18368E-03    -.13603E-04  8834    .150E-02     .137E-03                                     
RMM:   4     -.249551123615E+02    -.36193E-04    -.95329E-06  6120    .530E-03     .555E-04                                     
RMM:   5     -.249551237871E+02    -.11426E-04    -.19185E-06  4401    .377E-03                                                  
   64 T=  3100. E= -.19746312E+02 F= -.24955124E+02 E0= -.24875501E+02  EK=  .52088E+01 SP=  .00E+00 SK=  .00E+00 mag=       .992
       N       E                     dE             d eps       ncg     rms          rms(c)                                      
DAV:   1     -.249504619279E+02     .46504E-02    -.11698E+00 14096    .481E+00     .792E-03                                     
RMM:   2     -.249550795966E+02    -.46177E-02    -.31094E-03 12578    .742E-02     .284E-03                                     
RMM:   3     -.249551719603E+02    -.92364E-04    -.65396E-05  7803    .110E-02     .187E-03                                     
RMM:   4     -.249552074441E+02    -.35484E-04    -.87543E-06  5269    .495E-03     .138E-03                                     
RMM:   5     -.249552237709E+02    -.16327E-04    -.60421E-06  5744    .493E-03                                                  
   65 T=  3100. E= -.19746306E+02 F= -.24955224E+02 E0= -.24875600E+02  EK=  .52089E+01 SP=  .00E+00 SK=  .00E+00 mag=       .991
       N       E                     dE             d eps       ncg     rms          rms(c)                                      
DAV:   1     -.249479560453E+02     .72514E-02    -.77027E-01 14216    .616E+00     .854E-03                                     
RMM:   2     -.249550322308E+02    -.70762E-02    -.25848E-02 12641    .128E-01     .209E-03                                     
RMM:   3     -.249552808250E+02    -.24859E-03    -.63871E-04  8297    .195E-02     .129E-03                                     
RMM:   4     -.249553156224E+02    -.34797E-04    -.40057E-05  5479    .597E-03     .893E-04                                     
RMM:   5     -.249553267728E+02    -.11150E-04    -.81865E-06  4249    .430E-03                                                  
   66 T=  3100. E= -.19746303E+02 F= -.24955327E+02 E0= -.24875702E+02  EK=  .52090E+01 SP=  .00E+00 SK=  .00E+00 mag=       .991
       N       E                     dE             d eps       ncg     rms          rms(c)                                      
DAV:   1     -.249496532957E+02     .56623E-02    -.26123E+00 14448    .721E+00     .836E-03                                     
RMM:   2     -.249553501015E+02    -.56968E-02    -.17905E-02 12947    .131E-01     .198E-03                                     
RMM:   3     -.249554080390E+02    -.57937E-04    -.23404E-04  7814    .138E-02     .933E-04                                     
RMM:   4     -.249554303268E+02    -.22288E-04    -.15275E-05  5115    .563E-03                                                  
   67 T=  3100. E= -.19746296E+02 F= -.24955430E+02 E0= -.24875805E+02  EK=  .52091E+01 SP=  .00E+00 SK=  .00E+00 mag=       .990
       N       E                     dE             d eps       ncg     rms          rms(c)                                      
DAV:   1     -.249502722980E+02     .51357E-02    -.10060E+00 14672    .719E+00     .807E-03                                     
RMM:   2     -.249553617621E+02    -.50895E-02    -.76949E-03 12874    .109E-01     .277E-03                                     
RMM:   3     -.249555221278E+02    -.16037E-03    -.22940E-04  8680    .192E-02     .137E-03                                     
RMM:   4     -.249555404015E+02    -.18274E-04    -.98715E-06  5561    .533E-03                                                  
   68 T=  3100. E= -.19746291E+02 F= -.24955540E+02 E0= -.24875914E+02  EK=  .52092E+01 SP=  .00E+00 SK=  .00E+00 mag=       .989
       N       E                     dE             d eps       ncg     rms          rms(c)                                      
DAV:   1     -.249514844678E+02     .40377E-02    -.19924E+00 14440    .649E+00     .834E-03                                     
RMM:   2     -.249555964625E+02    -.41120E-02    -.58099E-03 12877    .948E-02     .237E-03                                     
RMM:   3     -.249556316517E+02    -.35189E-04    -.49060E-05  7898    .935E-03     .133E-03                                     
RMM:   4     -.249556495577E+02    -.17906E-04    -.40989E-06  4855    .432E-03                                                  
   69 T=  3100. E= -.19746279E+02 F= -.24955650E+02 E0= -.24876021E+02  EK=  .52094E+01 SP=  .00E+00 SK=  .00E+00 mag=       .989
       N       E                     dE             d eps       ncg     rms          rms(c)                                      
DAV:   1     -.249515438801E+02     .40878E-02    -.10470E+00 14320    .496E+00     .869E-03                                     
RMM:   2     -.249556874353E+02    -.41436E-02    -.10902E-02 12842    .107E-01     .258E-03                                     
RMM:   3     -.249557505143E+02    -.63079E-04    -.17883E-04  7947    .115E-02     .161E-03                                     
RMM:   4     -.249557749162E+02    -.24402E-04    -.14521E-05  5451    .548E-03                                                  
   70 T=  3100. E= -.19746275E+02 F= -.24955775E+02 E0= -.24876146E+02  EK=  .52095E+01 SP=  .00E+00 SK=  .00E+00 mag=       .988
       N       E                     dE             d eps       ncg     rms          rms(c)                                      
DAV:   1     -.249460817059E+02     .96688E-02    -.23180E+00 14216    .434E+00     .985E-03                                     
RMM:   2     -.249561019498E+02    -.10020E-01    -.71066E-02 12667    .154E-01     .400E-03                                     
RMM:   3     -.249558924918E+02     .20946E-03    -.91257E-04  9053    .158E-02     .187E-03                                     
RMM:   4     -.249559112561E+02    -.18764E-04    -.71461E-05  4983    .586E-03                                                  
   71 T=  3100. E= -.19746277E+02 F= -.24955911E+02 E0= -.24876281E+02  EK=  .52096E+01 SP=  .00E+00 SK=  .00E+00 mag=       .987
       N       E                     dE             d eps       ncg     rms          rms(c)                                      
DAV:   1     -.249519773026E+02     .39152E-02    -.92342E-01 14488    .529E+00     .842E-03                                     
RMM:   2     -.249559347487E+02    -.39574E-02    -.46156E-03 12732    .953E-02     .254E-03                                     
RMM:   3     -.249560208870E+02    -.86138E-04    -.93581E-05  7947    .124E-02     .181E-03                                     
RMM:   4     -.249560417261E+02    -.20839E-04    -.96356E-06  6028    .576E-03                                                  
   72 T=  3100. E= -.19746266E+02 F= -.24956042E+02 E0= -.24876411E+02  EK=  .52098E+01 SP=  .00E+00 SK=  .00E+00 mag=       .986
       N       E                     dE             d eps       ncg     rms          rms(c)                                      
DAV:   1     -.249526187205E+02     .34022E-02    -.10010E+00 14368    .514E+00     .846E-03                                     
RMM:   2     -.249560983531E+02    -.34796E-02    -.33663E-03 12802    .882E-02     .237E-03                                     
RMM:   3     -.249561296744E+02    -.31321E-04    -.27780E-05  7878    .870E-03     .169E-03                                     
RMM:   4     -.249561531592E+02    -.23485E-04    -.31678E-06  5687    .470E-03                                                  
   73 T=  3100. E= -.19746225E+02 F= -.24956153E+02 E0= -.24876521E+02  EK=  .52099E+01 SP=  .00E+00 SK=  .00E+00 mag=       .986
       N       E                     dE             d eps       ncg     rms          rms(c)                                      
DAV:   1     -.249447352425E+02     .11394E-01    -.52643E-01 14600    .396E+00     .890E-03                                     
RMM:   2     -.249560078904E+02    -.11273E-01    -.82475E-02 12820    .174E-01     .246E-03                                     
RMM:   3     -.249562953456E+02    -.28746E-03    -.28063E-03  7718    .195E-02     .199E-03                                     
RMM:   4     -.249563288643E+02    -.33519E-04    -.11255E-04  4971    .661E-03     .160E-03                                     
RMM:   5     -.249563455947E+02    -.16730E-04    -.19810E-05  5143    .483E-03                                                  
   74 T=  3101. E= -.19746254E+02 F= -.24956346E+02 E0= -.24876713E+02  EK=  .52101E+01 SP=  .00E+00 SK=  .00E+00 mag=       .985
       N       E                     dE             d eps       ncg     rms          rms(c)                                      
DAV:   1     -.249530873893E+02     .32415E-02    -.11020E+00 14408    .341E+00     .844E-03                                     
RMM:   2     -.249564426798E+02    -.33553E-02    -.98859E-03 12534    .102E-01     .220E-03                                     
RMM:   3     -.249565138896E+02    -.71210E-04    -.15149E-04  7707    .111E-02     .110E-03                                     
RMM:   4     -.249565294857E+02    -.15596E-04    -.11386E-05  5352    .527E-03                                                  
   75 T=  3101. E= -.19746260E+02 F= -.24956529E+02 E0= -.24876896E+02  EK=  .52103E+01 SP=  .00E+00 SK=  .00E+00 mag=       .983
[...]
RMM:   2     -.249222977374E+02    -.35420E-02    -.15548E-02 11095    .680E-02     .572E-03                                     
RMM:   3     -.249243287746E+02    -.20310E-02    -.53955E-04  7587    .124E-02     .574E-03                                     
RMM:   4     -.249259092235E+02    -.15804E-02    -.44372E-05  5252    .583E-03     .231E-03                                     
RMM:   5     -.249278874119E+02    -.19782E-02    -.61578E-06  5351    .477E-03     .534E-04                                     
RMM:   6     -.249279142348E+02    -.26823E-04    -.12034E-06  3626    .357E-03                                                  
  608 T=  3085. E= -.19744394E+02 F= -.24927914E+02 E0= -.24848297E+02  EK=  .51835E+01 SP=  .00E+00 SK=  .00E+00 mag=      1.000
       N       E                     dE             d eps       ncg     rms          rms(c)                                      
DAV:   1     -.249154008772E+02     .12487E-01    -.86995E-01 11760    .669E+00     .874E-03                                     
RMM:   2     -.249219883419E+02    -.65875E-02    -.46131E-02 10862    .102E-01     .591E-03                                     
RMM:   3     -.249241439261E+02    -.21556E-02    -.30543E-03  6790    .181E-02     .429E-03                                     
RMM:   4     -.249255982399E+02    -.14543E-02    -.17589E-04  4838    .746E-03     .295E-03                                     
RMM:   5     -.249269386557E+02    -.13404E-02    -.26627E-05  5557    .472E-03     .337E-03                                     
RMM:   6     -.249276769086E+02    -.73825E-03    -.28990E-06  3865    .354E-03     .581E-04                                     
RMM:   7     -.249277749184E+02    -.98010E-04    -.22266E-06  4223    .403E-03     .309E-04                                     
RMM:   8     -.249277766754E+02    -.17571E-05    -.13746E-07  2013    .253E-03                                                  
  609 T=  3085. E= -.19744380E+02 F= -.24927777E+02 E0= -.24848161E+02  EK=  .51834E+01 SP=  .00E+00 SK=  .00E+00 mag=      1.000
       N       E                     dE             d eps       ncg     rms          rms(c)                                      
DAV:   1     -.249197090231E+02     .80659E-02    -.16817E+00 11728    .745E+00     .815E-03                                     
RMM:   2     -.249220754945E+02    -.23665E-02    -.37676E-03 11304    .550E-02     .570E-03                                     
RMM:   3     -.249244718221E+02    -.23963E-02    -.44792E-05  6934    .862E-03     .385E-03                                     
RMM:   4     -.249263618837E+02    -.18901E-02    -.49882E-06  5358    .474E-03     .219E-03                                     
RMM:   5     -.249273013822E+02    -.93950E-03    -.16120E-06  4865    .385E-03     .266E-03                                     
RMM:   6     -.249276646698E+02    -.36329E-03    -.24512E-06  4358    .404E-03     .477E-04                                     
RMM:   7     -.249276571536E+02     .75162E-05    -.20239E-07  2513    .275E-03                                                  
  610 T=  3085. E= -.19744385E+02 F= -.24927657E+02 E0= -.24848042E+02  EK=  .51833E+01 SP=  .00E+00 SK=  .00E+00 mag=      1.000
       N       E                     dE             d eps       ncg     rms          rms(c)                                      
DAV:   1     -.249199609535E+02     .77037E-02    -.14127E+00 11120    .661E+00     .827E-03                                     
RMM:   2     -.249220217406E+02    -.20608E-02    -.91533E-04 10827    .305E-02     .574E-03                                     
RMM:   3     -.249258759947E+02    -.38543E-02    -.13645E-05  7895    .685E-03     .442E-03                                     
RMM:   4     -.249271370044E+02    -.12610E-02    -.25906E-06  5236    .422E-03     .172E-03                                     
RMM:   5     -.249274641676E+02    -.32716E-03    -.38908E-06  5161    .475E-03     .110E-03                                     
RMM:   6     -.249274291630E+02     .35005E-04    -.18097E-07  2333    .258E-03     .371E-04                                     
RMM:   7     -.249274753390E+02    -.46176E-04    -.30506E-08  1978    .234E-03     .241E-04                                     
RMM:   8     -.249275325608E+02    -.57222E-04    -.13612E-07  2384    .241E-03     .657E-05                                     
RMM:   9     -.249275459516E+02    -.13391E-04    -.13983E-07  2111    .251E-03                                                  
  611 T=  3084. E= -.19744398E+02 F= -.24927546E+02 E0= -.24847932E+02  EK=  .51831E+01 SP=  .00E+00 SK=  .00E+00 mag=      1.000
       N       E                     dE             d eps       ncg     rms          rms(c)                                      
DAV:   1     -.249197679452E+02     .77646E-02    -.20455E+00 11288    .789E+00     .808E-03                                     
RMM:   2     -.249218845405E+02    -.21166E-02    -.14462E-03 11265    .403E-02     .564E-03                                     
RMM:   3     -.249266064650E+02    -.47219E-02    -.27211E-05  7383    .756E-03     .295E-03                                     
RMM:   4     -.249273162806E+02    -.70982E-03    -.41359E-06  5018    .443E-03     .172E-03                                     
RMM:   5     -.249273094140E+02     .68666E-05    -.25009E-06  4370    .413E-03                                                  
  612 T=  3084. E= -.19744286E+02 F= -.24927309E+02 E0= -.24847696E+02  EK=  .51830E+01 SP=  .00E+00 SK=  .00E+00 mag=      1.000
       N       E                     dE             d eps       ncg     rms          rms(c)                                      
DAV:   1     -.249188712741E+02     .84450E-02    -.89183E-01 11848    .610E+00     .822E-03                                     
RMM:   2     -.249219100221E+02    -.30387E-02    -.11090E-02 10988    .753E-02     .574E-03                                     
RMM:   3     -.249240507725E+02    -.21408E-02    -.13117E-04  8098    .108E-02     .446E-03                                     
RMM:   4     -.249265203806E+02    -.24696E-02    -.10110E-05  6375    .554E-03     .226E-03                                     
RMM:   5     -.249270587347E+02    -.53835E-03    -.14059E-06  4098    .352E-03     .189E-03                                     
RMM:   6     -.249272126339E+02    -.15390E-03    -.26646E-06  4494    .419E-03     .351E-04                                     
RMM:   7     -.249272276584E+02    -.15025E-04    -.86452E-08  2083    .245E-03                                                  
  613 T=  3084. E= -.19744327E+02 F= -.24927228E+02 E0= -.24847615E+02  EK=  .51829E+01 SP=  .00E+00 SK=  .00E+00 mag=      1.000
       N       E                     dE             d eps       ncg     rms          rms(c)                                      
DAV:   1     -.249190894202E+02     .81232E-02    -.84374E-01 11160    .598E+00     .821E-03                                     
RMM:   2     -.249215038930E+02    -.24145E-02    -.40524E-03 10525    .395E-02     .574E-03                                     
RMM:   3     -.249238395951E+02    -.23357E-02    -.89022E-05  7698    .832E-03     .439E-03                                     
RMM:   4     -.249269041273E+02    -.30645E-02    -.13896E-05  6379    .561E-03     .101E-03                                     
RMM:   5     -.249271594474E+02    -.25532E-03    -.34956E-06  4422    .415E-03     .176E-03                                     
RMM:   6     -.249271301143E+02     .29333E-04    -.28558E-07  2590    .271E-03                                                  
  614 T=  3084. E= -.19744353E+02 F= -.24927130E+02 E0= -.24847518E+02  EK=  .51828E+01 SP=  .00E+00 SK=  .00E+00 mag=      1.000
       N       E                     dE             d eps       ncg     rms          rms(c)                                      
DAV:   1     -.249179604342E+02     .91990E-02    -.32515E+00 11336    .793E+00     .838E-03                                     
RMM:   2     -.249215608660E+02    -.36004E-02    -.16508E-02 10858    .757E-02     .577E-03                                     
RMM:   3     -.249245119370E+02    -.29511E-02    -.38565E-04  6360    .125E-02     .321E-03                                     
RMM:   4     -.249254587558E+02    -.94682E-03    -.49312E-05  5123    .606E-03     .355E-03                                     
RMM:   5     -.249270406977E+02    -.15819E-02    -.76003E-06  5489    .512E-03     .666E-04                                     
RMM:   6     -.249270045193E+02     .36178E-04    -.67428E-07  3128    .311E-03     .391E-04                                     
RMM:   7     -.249269869971E+02     .17522E-04    -.10683E-07  2169    .265E-03                                                  
  615 T=  3084. E= -.19744332E+02 F= -.24926987E+02 E0= -.24847375E+02  EK=  .51827E+01 SP=  .00E+00 SK=  .00E+00 mag=      1.000
       N       E                     dE             d eps       ncg     rms          rms(c)                                      
DAV:   1     -.249121358394E+02     .14869E-01    -.14674E+00 11600    .797E+00     .108E-02                                     
RMM:   2     -.249212307199E+02    -.90949E-02    -.71110E-02 11612    .147E-01     .623E-03                                     
RMM:   3     -.249226369257E+02    -.14062E-02    -.93422E-04  6757    .171E-02     .459E-03                                     
RMM:   4     -.249236809845E+02    -.10441E-02    -.59582E-05  5364    .656E-03     .498E-03                                     
RMM:   5     -.249253528005E+02    -.16718E-02    -.39921E-06  5471    .421E-03     .276E-03                                     
RMM:   6     -.249263314215E+02    -.97862E-03    -.90047E-07  4032    .345E-03     .932E-04                                     
RMM:   7     -.249269138244E+02    -.58240E-03    -.19007E-06  4289    .381E-03     .417E-04                                     
RMM:   8     -.249269176981E+02    -.38738E-05    -.31716E-07  2610    .294E-03                                                  
  616 T=  3084. E= -.19744385E+02 F= -.24926918E+02 E0= -.24847306E+02  EK=  .51825E+01 SP=  .00E+00 SK=  .00E+00 mag=      1.000
       N       E                     dE             d eps       ncg     rms          rms(c)                                      
DAV:   1     -.249192716250E+02     .76422E-02    -.12156E+00 10872    .638E+00     .815E-03                                     
RMM:   2     -.249212581837E+02    -.19866E-02    -.14529E-04 10553    .196E-02     .572E-03                                     
RMM:   3     -.249263579491E+02    -.50998E-02    -.72696E-06  7668    .601E-03     .254E-03                                     
RMM:   4     -.249266907340E+02    -.33278E-03    -.41450E-06  5248    .484E-03     .188E-03                                     
RMM:   5     -.249266332416E+02     .57492E-04    -.24253E-07  2819    .272E-03     .723E-04                                     
RMM:   6     -.249266647111E+02    -.31470E-04    -.31695E-08  1913    .236E-03     .359E-04                                     
RMM:   7     -.249267576262E+02    -.92915E-04    -.10136E-07  2438    .237E-03     .148E-04                                     
RMM:   8     -.249267920019E+02    -.34376E-04    -.18281E-07  2257    .250E-03     .361E-05                                     
RMM:   9     -.249267966082E+02    -.46063E-05    -.49038E-08  1933    .243E-03                                                  
  617 T=  3084. E= -.19744387E+02 F= -.24926797E+02 E0= -.24847186E+02  EK=  .51824E+01 SP=  .00E+00 SK=  .00E+00 mag=      1.000
       N       E                     dE             d eps       ncg     rms          rms(c)                                      
DAV:   1     -.249190213630E+02     .77706E-02    -.86717E-01 11240    .591E+00     .812E-03                                     
RMM:   2     -.249211310863E+02    -.21097E-02    -.13530E-03 10510    .340E-02     .563E-03                                     
RMM:   3     -.249263071667E+02    -.51761E-02    -.25452E-05  7164    .737E-03     .206E-03                                     
RMM:   4     -.249266398888E+02    -.33272E-03    -.48394E-06  5103    .484E-03     .193E-03                                     
RMM:   5     -.249265720012E+02     .67888E-04    -.57623E-07  2913    .288E-03     .425E-04                                     
RMM:   6     -.249265917453E+02    -.19744E-04    -.55838E-08  1890    .247E-03                                                  
  618 T=  3084. E= -.19744305E+02 F= -.24926592E+02 E0= -.24846981E+02  EK=  .51823E+01 SP=  .00E+00 SK=  .00E+00 mag=      1.000
       N       E                     dE             d eps       ncg     rms          rms(c)                                      
DAV:   1     -.249055835151E+02     .20988E-01    -.17012E+00 11736    .642E+00     .113E-02                                     
RMM:   2     -.249210916888E+02    -.15508E-01    -.13382E-01 10830    .209E-01     .641E-03                                     
RMM:   3     -.249222497230E+02    -.11580E-02    -.33424E-03  8993    .298E-02     .767E-03                                     
RMM:   4     -.249227508322E+02    -.50111E-03    -.23583E-04  5590    .101E-02     .442E-03                                     
RMM:   5     -.249244638458E+02    -.17130E-02    -.23270E-05  4461    .453E-03     .258E-03                                     
RMM:   6     -.249257705652E+02    -.13067E-02    -.23759E-06  5010    .385E-03     .171E-03                                     
RMM:   7     -.249265117116E+02    -.74115E-03    -.18352E-06  4412    .366E-03     .468E-04                                     
RMM:   8     -.249265282828E+02    -.16571E-04    -.74894E-07  3351    .327E-03                                                  
  619 T=  3084. E= -.19744364E+02 F= -.24926528E+02 E0= -.24846919E+02  EK=  .51822E+01 SP=  .00E+00 SK=  .00E+00 mag=      1.000
       N       E                     dE             d eps       ncg     rms          rms(c)                                      
DAV:   1     -.249164378841E+02     .10074E-01    -.58990E-01 11448    .695E+00     .846E-03                                     
RMM:   2     -.249207758383E+02    -.43380E-02    -.23389E-02 10952    .823E-02     .578E-03                                     
RMM:   3     -.249229172451E+02    -.21414E-02    -.37378E-04  6602    .117E-02     .439E-03                                     
RMM:   4     -.249237683457E+02    -.85110E-03    -.28405E-05  4195    .510E-03     .338E-03                                     
RMM:   5     -.249262252479E+02    -.24569E-02    -.44247E-06  5422    .443E-03     .685E-04                                     
RMM:   6     -.249263898965E+02    -.16465E-03    -.56387E-07  3309    .313E-03     .559E-04                                     
RMM:   7     -.249264082498E+02    -.18353E-04    -.71169E-07  3492    .334E-03                                                  
  620 T=  3084. E= -.19744366E+02 F= -.24926408E+02 E0= -.24846799E+02  EK=  .51820E+01 SP=  .00E+00 SK=  .00E+00 mag=      1.000
       N       E                     dE             d eps       ncg     rms          rms(c)                                      
DAV:   1     -.249181707606E+02     .82191E-02    -.12089E+00 11256    .677E+00     .821E-03                                     
RMM:   2     -.249207827463E+02    -.26120E-02    -.65201E-03 11061    .465E-02     .570E-03                                     
RMM:   3     -.249240968770E+02    -.33141E-02    -.10729E-04  7328    .801E-03     .457E-03                                     
RMM:   4     -.249253784519E+02    -.12816E-02    -.14884E-05  5156    .464E-03     .180E-03                                     
RMM:   5     -.249262727547E+02    -.89430E-03    -.53909E-06  5341    .478E-03     .108E-03                                     
RMM:   6     -.249262321253E+02     .40629E-04    -.50490E-07  2586    .278E-03     .393E-04                                     
RMM:   7     -.249262538344E+02    -.21709E-04    -.49778E-08  1881    .244E-03                                                  
  621 T=  3084. E= -.19744333E+02 F= -.24926254E+02 E0= -.24846646E+02  EK=  .51819E+01 SP=  .00E+00 SK=  .00E+00 mag=      1.000
       N       E                     dE             d eps       ncg     rms          rms(c)                                      
DAV:   1     -.249174233677E+02     .88088E-02    -.15844E+00 11480    .641E+00     .830E-03                                     
RMM:   2     -.249205812911E+02    -.31579E-02    -.11816E-02 10881    .563E-02     .571E-03                                     
RMM:   3     -.249234479383E+02    -.28666E-02    -.19593E-04  6369    .884E-03     .399E-03                                     
RMM:   4     -.249244675615E+02    -.10196E-02    -.20690E-05  4603    .469E-03     .271E-03                                     
RMM:   5     -.249261759485E+02    -.17084E-02    -.53991E-06  5460    .465E-03     .511E-04                                     
RMM:   6     -.249261468962E+02     .29052E-04    -.71794E-07  3209    .319E-03                                                  
  622 T=  3084. E= -.19744347E+02 F= -.24926147E+02 E0= -.24846540E+02  EK=  .51818E+01 SP=  .00E+00 SK=  .00E+00 mag=      1.000
       N       E                     dE             d eps       ncg     rms          rms(c)                                      
DAV:   1     -.249181058749E+02     .80701E-02    -.15112E+00 11264    .609E+00     .832E-03                                     
RMM:   2     -.249205898381E+02    -.24840E-02    -.53601E-03 10694    .449E-02     .576E-03                                     
RMM:   3     -.249242080354E+02    -.36182E-02    -.73949E-05  7162    .755E-03     .311E-03                                     
RMM:   4     -.249256778818E+02    -.14698E-02    -.83597E-06  5601    .457E-03     .200E-03                                     
RMM:   5     -.249260437546E+02    -.36587E-03    -.21822E-06  4191    .365E-03     .171E-03                                     
RMM:   6     -.249259622007E+02     .81554E-04    -.10545E-06  3630    .338E-03     .349E-04                                     
RMM:   7     -.249259876624E+02    -.25462E-04    -.66566E-08  2090    .248E-03                                                  
  623 T=  3084. E= -.19744309E+02 F= -.24925988E+02 E0= -.24846381E+02  EK=  .51817E+01 SP=  .00E+00 SK=  .00E+00 mag=      1.000
       N       E                     dE             d eps       ncg     rms          rms(c)                                      
DAV:   1     -.249182842696E+02     .76779E-02    -.39610E-01 11184    .517E+00     .808E-03                                     
RMM:   2     -.249203296857E+02    -.20454E-02    -.56943E-04 10420    .232E-02     .562E-03                                     
RMM:   3     -.249242789820E+02    -.39493E-02    -.20214E-05  7629    .624E-03     .346E-03                                     
RMM:   4     -.249258337560E+02    -.15548E-02    -.72296E-06  6582    .558E-03     .187E-03                                     
RMM:   5     -.249256907138E+02     .14304E-03    -.59242E-07  3315    .305E-03     .112E-03                                     
RMM:   6     -.249258478664E+02    -.15715E-03    -.15201E-07  2551    .236E-03     .433E-04                                     
RMM:   7     -.249259005665E+02    -.52700E-04    -.97252E-08  2435    .235E-03     .218E-04                                     
RMM:   8     -.249259238641E+02    -.23298E-04    -.10550E-07  2463    .239E-03                                                  
  624 T=  3084. E= -.19744366E+02 F= -.24925924E+02 E0= -.24846317E+02  EK=  .51816E+01 SP=  .00E+00 SK=  .00E+00 mag=      1.000
