       N       E                     dE             d eps       ncg     rms          rms(c)                                      
DAV:   1      .111260290567E+04     .11126E+04    -.62892E+04 16320    .996E+02                                                  
DAV:   2      .171650958941E+02    -.10954E+04    -.10385E+04 16872    .279E+02                                                  
DAV:   3     -.254827985572E+02    -.42648E+02    -.42097E+02 18072    .672E+01                                                  
DAV:   4     -.258592860282E+02    -.37649E+00    -.37597E+00 18048    .608E+00                                                  
DAV:   5     -.258638404417E+02    -.45544E-02    -.45543E-02 18216    .565E-01     .167E+01                                     
RMM:   6     -.243861811228E+02     .14777E+01    -.57733E+00 16320    .813E+00     .107E+01                                     
RMM:   7     -.339732258562E+02    -.95870E+01    -.13532E+01 16345    .729E+00     .102E+01                                     
RMM:   8     -.277761688702E+02     .61971E+01    -.96937E+00 16373    .572E+00     .587E+00                                     
RMM:   9     -.257587056965E+02     .20175E+01    -.37300E+00 16399    .347E+00     .436E+00                                     
RMM:  10     -.250338257296E+02     .72488E+00    -.83399E-01 16375    .204E+00     .141E+00                                     
RMM:  11     -.249227454420E+02     .11108E+00    -.19686E-01 16405    .995E-01     .290E-01                                     
RMM:  12     -.249199046594E+02     .28408E-02    -.74697E-03 16418    .229E-01     .143E-01                                     
RMM:  13     -.249210368939E+02    -.11322E-02    -.11763E-03 16434    .976E-02     .583E-02                                     
RMM:  14     -.249214792844E+02    -.44239E-03    -.95433E-05 11530    .290E-02     .272E-02                                     
RMM:  15     -.249218199737E+02    -.34069E-03    -.43961E-05 10122    .191E-02     .102E-02                                     
RMM:  16     -.249218505850E+02    -.30611E-04    -.10372E-05  9560    .995E-03     .414E-03                                     
RMM:  17     -.249218499155E+02     .66956E-06    -.21443E-06  6267    .465E-03                                                  
    1 T=  3130. E= -.19661523E+02 F= -.24921850E+02 E0= -.24841550E+02  EK=  .52603E+01 SP=  .00E+00 SK=  .00E+00 mag=      1.000
       N       E                     dE             d eps       ncg     rms          rms(c)                                      
DAV:   1     -.244666865786E+02     .45516E+00    -.15541E-01 17088    .164E-01     .301E-01                                     
RMM:   2     -.246062059588E+02    -.13952E+00    -.10020E-03 10939    .378E-02     .217E-01                                     
RMM:   3     -.249013807189E+02    -.29517E+00    -.13693E-03 11871    .443E-02     .241E-02                                     
RMM:   4     -.249169347161E+02    -.15554E-01    -.57531E-05 10184    .211E-02     .144E-02                                     
RMM:   5     -.249216143216E+02    -.46796E-02    -.18682E-05  9837    .126E-02     .262E-03                                     
RMM:   6     -.249214659609E+02     .14836E-03    -.74131E-07  5806    .370E-03     .101E-03                                     
RMM:   7     -.249218138195E+02    -.34786E-03    -.18762E-06  4803    .305E-03     .871E-04                                     
RMM:   8     -.249220237843E+02    -.20996E-03    -.77089E-06  4491    .336E-03     .272E-04                                     
RMM:   9     -.249220211374E+02     .26468E-05    -.68718E-07  2551    .188E-03                                                  
    2 T=  3131. E= -.19661519E+02 F= -.24922021E+02 E0= -.24841723E+02  EK=  .52605E+01 SP=  .00E+00 SK=  .00E+00 mag=      1.000
       N       E                     dE             d eps       ncg     rms          rms(c)                                      
DAV:   1     -.248694863484E+02     .52537E-01    -.89927E-03 11712    .444E-01     .418E-02                                     
RMM:   2     -.248845141183E+02    -.15028E-01    -.22702E-04 10214    .184E-02     .271E-02                                     
RMM:   3     -.249179237367E+02    -.33410E-01    -.16539E-04 10700    .236E-02     .102E-02                                     
RMM:   4     -.249216287870E+02    -.37051E-02    -.36629E-05 10062    .146E-02     .332E-03                                     
RMM:   5     -.249217642334E+02    -.13545E-03    -.29847E-06  8976    .576E-03     .128E-03                                     
RMM:   6     -.249220192422E+02    -.25501E-03    -.40214E-06  3812    .290E-03     .551E-04                                     
RMM:   7     -.249221533277E+02    -.13409E-03    -.22643E-06  3886    .318E-03     .215E-04                                     
RMM:   8     -.249221720635E+02    -.18736E-04    -.10289E-06  3091    .289E-03                                                  
    3 T=  3131. E= -.19661494E+02 F= -.24922172E+02 E0= -.24841874E+02  EK=  .52607E+01 SP=  .00E+00 SK=  .00E+00 mag=      1.000
       N       E                     dE             d eps       ncg     rms          rms(c)                                      
DAV:   1     -.249148689286E+02     .72844E-02    -.28203E-01 12064    .241E+00     .852E-03                                     
RMM:   2     -.249181220212E+02    -.32531E-02    -.17479E-04 10271    .155E-02     .435E-03                                     
RMM:   3     -.249216010560E+02    -.34790E-02    -.11133E-05  9735    .900E-03     .372E-03                                     
RMM:   4     -.249223481312E+02    -.74708E-03    -.22928E-05  9501    .798E-03     .927E-04                                     
RMM:   5     -.249222858183E+02     .62313E-04    -.19480E-06  3864    .317E-03     .215E-04                                     
RMM:   6     -.249223528844E+02    -.67066E-04    -.22454E-06  3299    .284E-03     .136E-04                                     
RMM:   7     -.249223731552E+02    -.20271E-04    -.61332E-07  2620    .222E-03                                                  
    4 T=  3131. E= -.19661519E+02 F= -.24922373E+02 E0= -.24842077E+02  EK=  .52609E+01 SP=  .00E+00 SK=  .00E+00 mag=      1.000
       N       E                     dE             d eps       ncg     rms          rms(c)                                      
DAV:   1     -.249150340525E+02     .73188E-02    -.33760E-01 11656    .267E+00     .791E-03                                     
RMM:   2     -.249213308054E+02    -.62968E-02    -.64053E-05 10041    .125E-02     .281E-03                                     
RMM:   3     -.249217057421E+02    -.37494E-03    -.24201E-06  5138    .383E-03     .201E-03                                     
RMM:   4     -.249220795475E+02    -.37381E-03    -.12690E-06  5103    .377E-03     .715E-04                                     
RMM:   5     -.249224333368E+02    -.35379E-03    -.13964E-06  4068    .323E-03     .346E-04                                     
RMM:   6     -.249225129962E+02    -.79659E-04    -.44200E-06  4377    .382E-03     .159E-04                                     
RMM:   7     -.249225465896E+02    -.33593E-04    -.11021E-07  2674    .239E-03     .102E-04                                     
RMM:   8     -.249225538765E+02    -.72869E-05    -.36479E-07  2909    .275E-03                                                  
    5 T=  3131. E= -.19661522E+02 F= -.24922554E+02 E0= -.24842258E+02  EK=  .52610E+01 SP=  .00E+00 SK=  .00E+00 mag=      1.000
       N       E                     dE             d eps       ncg     rms          rms(c)                                      
DAV:   1     -.249152131772E+02     .73334E-02    -.14414E+00 11320    .436E+00     .801E-03                                     
RMM:   2     -.249217332265E+02    -.65200E-02    -.18511E-04 10542    .195E-02     .367E-03                                     
RMM:   3     -.249221138577E+02    -.38063E-03    -.48611E-06  5630    .469E-03     .260E-03                                     
RMM:   4     -.249223214261E+02    -.20757E-03    -.26198E-06  8505    .532E-03     .965E-04                                     
RMM:   5     -.249226294869E+02    -.30806E-03    -.31429E-06  3931    .340E-03     .661E-04                                     
RMM:   6     -.249226948814E+02    -.65394E-04    -.20716E-06  3840    .314E-03     .245E-04                                     
RMM:   7     -.249227226840E+02    -.27803E-04    -.22031E-06  4157    .347E-03                                                  
    6 T=  3131. E= -.19661513E+02 F= -.24922723E+02 E0= -.24842427E+02  EK=  .52612E+01 SP=  .00E+00 SK=  .00E+00 mag=      1.000
       N       E                     dE             d eps       ncg     rms          rms(c)                                      
DAV:   1     -.249133901081E+02     .93048E-02    -.69489E-01 11592    .401E+00     .816E-03                                     
RMM:   2     -.249221124184E+02    -.87223E-02    -.19770E-02 10375    .752E-02     .377E-03                                     
RMM:   3     -.249225911811E+02    -.47876E-03    -.42397E-04  6812    .133E-02     .221E-03                                     
RMM:   4     -.249226526504E+02    -.61469E-04    -.46174E-05  6381    .675E-03     .929E-04                                     
RMM:   5     -.249227771949E+02    -.12454E-03    -.80293E-06  3484    .343E-03     .818E-04                                     
RMM:   6     -.249228559436E+02    -.78749E-04    -.11618E-06  4798    .312E-03     .175E-04                                     
RMM:   7     -.249228820117E+02    -.26068E-04    -.30400E-07  2618    .208E-03                                                  
    7 T=  3131. E= -.19661492E+02 F= -.24922882E+02 E0= -.24842587E+02  EK=  .52614E+01 SP=  .00E+00 SK=  .00E+00 mag=      1.000
       N       E                     dE             d eps       ncg     rms          rms(c)                                      
DAV:   1     -.249154019972E+02     .74539E-02    -.89879E-01 11544    .415E+00     .795E-03                                     
RMM:   2     -.249219370857E+02    -.65351E-02    -.20669E-03 10119    .302E-02     .181E-03                                     
RMM:   3     -.249228394406E+02    -.90235E-03    -.69781E-05  6556    .784E-03     .775E-04                                     
RMM:   4     -.249229752606E+02    -.13582E-03    -.68860E-06  4496    .430E-03     .481E-04                                     
RMM:   5     -.249230318054E+02    -.56545E-04    -.20531E-06  4088    .349E-03     .445E-04                                     
RMM:   6     -.249230534901E+02    -.21685E-04    -.15876E-06  3633    .324E-03                                                  
    8 T=  3131. E= -.19661483E+02 F= -.24923053E+02 E0= -.24842760E+02  EK=  .52616E+01 SP=  .00E+00 SK=  .00E+00 mag=      1.000
       N       E                     dE             d eps       ncg     rms          rms(c)                                      
DAV:   1     -.249156985092E+02     .73333E-02    -.85409E-01 11376    .310E+00     .795E-03                                     
RMM:   2     -.249225280920E+02    -.68296E-02    -.59320E-04 10501    .232E-02     .179E-03                                     
RMM:   3     -.249229913880E+02    -.46330E-03    -.97292E-06  5465    .514E-03     .120E-03                                     
RMM:   4     -.249231481662E+02    -.15678E-03    -.23597E-06  4721    .384E-03     .657E-04                                     
RMM:   5     -.249231478971E+02     .26909E-06    -.42710E-06  4834    .413E-03                                                  
    9 T=  3131. E= -.19661396E+02 F= -.24923148E+02 E0= -.24842856E+02  EK=  .52618E+01 SP=  .00E+00 SK=  .00E+00 mag=      1.000
       N       E                     dE             d eps       ncg     rms          rms(c)                                      
DAV:   1     -.249157657725E+02     .73824E-02    -.11795E+00 11696    .329E+00     .791E-03                                     
RMM:   2     -.249225820636E+02    -.68163E-02    -.18510E-03 10145    .282E-02     .184E-03                                     
RMM:   3     -.249230526708E+02    -.47061E-03    -.48965E-05  5993    .703E-03     .732E-04                                     
RMM:   4     -.249233443818E+02    -.29171E-03    -.79502E-06  4972    .484E-03     .340E-04                                     
RMM:   5     -.249234316584E+02    -.87277E-04    -.14624E-06  4096    .359E-03     .146E-04                                     
RMM:   6     -.249234519743E+02    -.20316E-04    -.21287E-06  3837    .373E-03                                                  
   10 T=  3131. E= -.19661518E+02 F= -.24923452E+02 E0= -.24843160E+02  EK=  .52619E+01 SP=  .00E+00 SK=  .00E+00 mag=      1.000
       N       E                     dE             d eps       ncg     rms          rms(c)                                      
DAV:   1     -.249066337950E+02     .16798E-01    -.68238E-01 12024    .373E+00     .980E-03                                     
RMM:   2     -.249226526107E+02    -.16019E-01    -.93996E-02 10499    .155E-01     .252E-03                                     
RMM:   3     -.249232416376E+02    -.58903E-03    -.10644E-03  6103    .186E-02     .158E-03                                     
RMM:   4     -.249233770854E+02    -.13545E-03    -.71637E-05  4180    .639E-03     .123E-03                                     
RMM:   5     -.249234630122E+02    -.85927E-04    -.47451E-06  4297    .400E-03     .732E-04                                     
RMM:   6     -.249235479635E+02    -.84951E-04    -.68255E-07  3294    .304E-03     .293E-04                                     
RMM:   7     -.249235970975E+02    -.49134E-04    -.91111E-07  3669    .321E-03     .163E-04                                     
RMM:   8     -.249236343120E+02    -.37214E-04    -.31824E-07  2957    .295E-03     .697E-05                                     
RMM:   9     -.249236430072E+02    -.86953E-05    -.16585E-07  2583    .281E-03                                                  
   11 T=  3131. E= -.19661524E+02 F= -.24923643E+02 E0= -.24843352E+02  EK=  .52621E+01 SP=  .00E+00 SK=  .00E+00 mag=      1.000
       N       E                     dE             d eps       ncg     rms          rms(c)                                      
DAV:   1     -.249163073269E+02     .73270E-02    -.64814E-01 11080    .330E+00     .790E-03                                     
RMM:   2     -.249230749321E+02    -.67676E-02    -.93330E-05 10493    .174E-02     .225E-03                                     
RMM:   3     -.249235700889E+02    -.49516E-03    -.73091E-06  6715    .568E-03     .938E-04                                     
RMM:   4     -.249237166533E+02    -.14656E-03    -.16636E-06  4445    .377E-03     .444E-04                                     
RMM:   5     -.249237704348E+02    -.53781E-04    -.38013E-07  3224    .291E-03     .188E-04                                     
RMM:   6     -.249237908230E+02    -.20388E-04    -.32554E-07  3134    .292E-03                                                  
   12 T=  3132. E= -.19661486E+02 F= -.24923791E+02 E0= -.24843501E+02  EK=  .52623E+01 SP=  .00E+00 SK=  .00E+00 mag=      1.000
       N       E                     dE             d eps       ncg     rms          rms(c)                                      
DAV:   1     -.249164908937E+02     .72795E-02    -.27077E-01 11280    .224E+00     .791E-03                                     
RMM:   2     -.249232789966E+02    -.67881E-02    -.17899E-04 10296    .180E-02     .191E-03                                     
RMM:   3     -.249235158138E+02    -.23682E-03    -.55549E-06  6328    .589E-03     .151E-03                                     
RMM:   4     -.249237068538E+02    -.19104E-03    -.17855E-06  4900    .394E-03     .671E-04                                     
RMM:   5     -.249239682833E+02    -.26143E-03    -.26134E-06  3819    .366E-03     .266E-04                                     
RMM:   6     -.249240055721E+02    -.37289E-04    -.20602E-06  4110    .381E-03     .133E-04                                     
RMM:   7     -.249240039055E+02     .16665E-05    -.10479E-07  2388    .256E-03                                                  
   13 T=  3132. E= -.19661512E+02 F= -.24924004E+02 E0= -.24843715E+02  EK=  .52625E+01 SP=  .00E+00 SK=  .00E+00 mag=      1.000
       N       E                     dE             d eps       ncg     rms          rms(c)                                      
DAV:   1     -.249167232346E+02     .72823E-02    -.18333E-01 11480    .189E+00     .787E-03                                     
RMM:   2     -.249234771952E+02    -.67540E-02    -.42654E-05  9932    .122E-02     .230E-03                                     
RMM:   3     -.249239591166E+02    -.48192E-03    -.37817E-06  5637    .461E-03     .168E-03                                     
RMM:   4     -.249240532466E+02    -.94130E-04    -.46440E-07  3611    .311E-03     .132E-03                                     
RMM:   5     -.249241806515E+02    -.12740E-03    -.25797E-06  6911    .438E-03     .538E-04                                     
RMM:   6     -.249241859412E+02    -.52897E-05    -.15670E-07  2211    .204E-03                                                  
   14 T=  3132. E= -.19661508E+02 F= -.24924186E+02 E0= -.24843897E+02  EK=  .52627E+01 SP=  .00E+00 SK=  .00E+00 mag=      1.000
       N       E                     dE             d eps       ncg     rms          rms(c)                                      
DAV:   1     -.249142496737E+02     .99310E-02    -.21652E-01 11840    .268E+00     .858E-03                                     
RMM:   2     -.249234689283E+02    -.92193E-02    -.25207E-02 10363    .805E-02     .346E-03                                     
RMM:   3     -.249241038492E+02    -.63492E-03    -.78027E-04  6774    .118E-02     .151E-03                                     
RMM:   4     -.249242262602E+02    -.12241E-03    -.29833E-05  4602    .475E-03     .104E-03                                     
RMM:   5     -.249242791360E+02    -.52876E-04    -.31031E-06  3998    .324E-03     .685E-04                                     
RMM:   6     -.249243574863E+02    -.78350E-04    -.12883E-06  4037    .317E-03     .419E-04                                     
RMM:   7     -.249243711657E+02    -.13679E-04    -.97969E-07  4022    .301E-03                                                  
   15 T=  3132. E= -.19661505E+02 F= -.24924371E+02 E0= -.24844084E+02  EK=  .52629E+01 SP=  .00E+00 SK=  .00E+00 mag=      1.000
       N       E                     dE             d eps       ncg     rms          rms(c)                                      
DAV:   1     -.249149527599E+02     .94047E-02    -.54907E-01 12136    .423E+00     .819E-03                                     
RMM:   2     -.249233741672E+02    -.84214E-02    -.20484E-02 10740    .716E-02     .355E-03                                     
RMM:   3     -.249241459450E+02    -.77178E-03    -.82172E-04  6743    .110E-02     .181E-03                                     
RMM:   4     -.249243375979E+02    -.19165E-03    -.41861E-05  6436    .538E-03     .656E-04                                     
RMM:   5     -.249244822147E+02    -.14462E-03    -.33140E-06  3851    .307E-03     .362E-04                                     
RMM:   6     -.249245389395E+02    -.56725E-04    -.17943E-06  4137    .336E-03     .181E-04                                     
RMM:   7     -.249245567467E+02    -.17807E-04    -.59303E-07  2851    .255E-03                                                  
   16 T=  3132. E= -.19661501E+02 F= -.24924557E+02 E0= -.24844270E+02  EK=  .52631E+01 SP=  .00E+00 SK=  .00E+00 mag=      1.000
       N       E                     dE             d eps       ncg     rms          rms(c)                                      
DAV:   1     -.249172490815E+02     .72899E-02    -.79353E-01 11552    .487E+00     .784E-03                                     
RMM:   2     -.249237849489E+02    -.65359E-02    -.24929E-04 10389    .208E-02     .263E-03                                     
RMM:   3     -.249246201802E+02    -.83523E-03    -.95994E-06  6016    .566E-03     .133E-03                                     
RMM:   4     -.249246563176E+02    -.36137E-04    -.27217E-06  4560    .422E-03     .827E-04                                     
RMM:   5     -.249246968527E+02    -.40535E-04    -.22758E-07  3023    .280E-03     .384E-04                                     
RMM:   6     -.249247332074E+02    -.36355E-04    -.94950E-07  3333    .317E-03     .158E-04                                     
RMM:   7     -.249247501380E+02    -.16931E-04    -.37787E-07  2899    .297E-03                                                  
   17 T=  3132. E= -.19661504E+02 F= -.24924750E+02 E0= -.24844465E+02  EK=  .52632E+01 SP=  .00E+00 SK=  .00E+00 mag=      1.000
       N       E                     dE             d eps       ncg     rms          rms(c)                                      
DAV:   1     -.249172835981E+02     .74496E-02    -.10762E+00 11488    .568E+00     .786E-03                                     
RMM:   2     -.249241806976E+02    -.68971E-02    -.20033E-03 10654    .348E-02     .232E-03                                     
RMM:   3     -.249246094690E+02    -.42877E-03    -.61708E-05  6812    .839E-03     .145E-03                                     
RMM:   4     -.249246670813E+02    -.57612E-04    -.57737E-06  6473    .506E-03     .834E-04                                     
RMM:   5     -.249248192074E+02    -.15213E-03    -.14843E-06  3739    .312E-03     .436E-04                                     
RMM:   6     -.249248984899E+02    -.79282E-04    -.13857E-06  3978    .321E-03     .219E-04                                     
RMM:   7     -.249249417648E+02    -.43275E-04    -.81709E-07  3738    .315E-03     .110E-04                                     
RMM:   8     -.249249523038E+02    -.10539E-04    -.13430E-06  3205    .309E-03                                                  
   18 T=  3132. E= -.19661515E+02 F= -.24924952E+02 E0= -.24844668E+02  EK=  .52634E+01 SP=  .00E+00 SK=  .00E+00 mag=      1.000
       N       E                     dE             d eps       ncg     rms          rms(c)                                      
DAV:   1     -.249165089046E+02     .84329E-02    -.82985E-01 11800    .634E+00     .805E-03                                     
RMM:   2     -.249243566989E+02    -.78478E-02    -.11382E-02 11308    .680E-02     .243E-03                                     
RMM:   3     -.249248538135E+02    -.49711E-03    -.15324E-04  6734    .981E-03     .167E-03                                     
RMM:   4     -.249250081252E+02    -.15431E-03    -.15776E-05  5299    .531E-03     .598E-04                                     
RMM:   5     -.249250922878E+02    -.84163E-04    -.28403E-06  4786    .391E-03     .289E-04                                     
RMM:   6     -.249251248958E+02    -.32608E-04    -.88065E-07  3434    .316E-03     .138E-04                                     
RMM:   7     -.249251417494E+02    -.16854E-04    -.13552E-06  3750    .358E-03                                                  
   19 T=  3132. E= -.19661513E+02 F= -.24925142E+02 E0= -.24844858E+02  EK=  .52636E+01 SP=  .00E+00 SK=  .00E+00 mag=      1.000
       N       E                     dE             d eps       ncg     rms          rms(c)                                      
DAV:   1     -.249136367105E+02     .11488E-01    -.79413E-01 12056    .535E+00     .914E-03                                     
RMM:   2     -.249243517584E+02    -.10715E-01    -.41365E-02 11137    .129E-01     .283E-03                                     
RMM:   3     -.249249700430E+02    -.61828E-03    -.42635E-04  7254    .143E-02     .167E-03                                     
RMM:   4     -.249251486239E+02    -.17858E-03    -.24981E-05  4628    .546E-03     .108E-03                                     
RMM:   5     -.249252746050E+02    -.12598E-03    -.50391E-06  5072    .456E-03     .433E-04                                     
RMM:   6     -.249253147483E+02    -.40143E-04    -.17859E-06  4006    .350E-03     .199E-04                                     
RMM:   7     -.249253258722E+02    -.11124E-04    -.36916E-06  4335    .414E-03                                                  
   20 T=  3132. E= -.19661504E+02 F= -.24925326E+02 E0= -.24845043E+02  EK=  .52638E+01 SP=  .00E+00 SK=  .00E+00 mag=      1.000
       N       E                     dE             d eps       ncg     rms          rms(c)                                      
DAV:   1     -.249180316508E+02     .72831E-02    -.10703E+00 11728    .550E+00     .785E-03                                     
RMM:   2     -.249246442590E+02    -.66126E-02    -.42357E-04 10784    .282E-02     .290E-03                                     
RMM:   3     -.249250600478E+02    -.41579E-03    -.12373E-05  6503    .701E-03     .145E-03                                     
RMM:   4     -.249253367851E+02    -.27674E-03    -.31179E-06  4704    .405E-03     .524E-04                                     
RMM:   5     -.249254336996E+02    -.96915E-04    -.12896E-06  3890    .351E-03     .304E-04                                     
RMM:   6     -.249254847084E+02    -.51009E-04    -.12186E-06  3723    .334E-03     .199E-04                                     
RMM:   7     -.249255218297E+02    -.37121E-04    -.36578E-06  4651    .445E-03     .998E-05                                     
RMM:   8     -.249255232435E+02    -.14139E-05    -.55645E-07  2808    .299E-03                                                  
   21 T=  3133. E= -.19661508E+02 F= -.24925523E+02 E0= -.24845241E+02  EK=  .52640E+01 SP=  .00E+00 SK=  .00E+00 mag=      1.000
       N       E                     dE             d eps       ncg     rms          rms(c)                                      
DAV:   1     -.249119262984E+02     .13596E-01    -.76120E-01 11688    .502E+00     .107E-02                                     
RMM:   2     -.249247334092E+02    -.12807E-01    -.61138E-02 10824    .113E-01     .323E-03                                     
RMM:   3     -.249252380759E+02    -.50467E-03    -.18086E-03  7483    .174E-02     .207E-03                                     
RMM:   4     -.249253922886E+02    -.15421E-03    -.73049E-05  4017    .573E-03     .158E-03                                     
RMM:   5     -.249255843205E+02    -.19203E-03    -.84980E-06  4328    .400E-03     .652E-04                                     
RMM:   6     -.249257002745E+02    -.11595E-03    -.38618E-06  5314    .478E-03     .218E-04                                     
RMM:   7     -.249257113511E+02    -.11077E-04    -.36163E-07  2816    .277E-03                                                  
   22 T=  3133. E= -.19661502E+02 F= -.24925711E+02 E0= -.24845430E+02  EK=  .52642E+01 SP=  .00E+00 SK=  .00E+00 mag=      1.000
       N       E                     dE             d eps       ncg     rms          rms(c)                                      
DAV:   1     -.249163023937E+02     .93979E-02    -.53430E-01 12080    .488E+00     .842E-03                                     
RMM:   2     -.249248859165E+02    -.85835E-02    -.20899E-02 10603    .763E-02     .240E-03                                     
RMM:   3     -.249255009829E+02    -.61507E-03    -.46289E-04  6192    .124E-02     .172E-03                                     
RMM:   4     -.249257229462E+02    -.22196E-03    -.46199E-05  3841    .554E-03     .104E-03                                     
RMM:   5     -.249258794167E+02    -.15647E-03    -.53074E-06  4675    .462E-03     .309E-04                                     
RMM:   6     -.249259042308E+02    -.24814E-04    -.26239E-06  4169    .416E-03                                                  
   23 T=  3133. E= -.19661500E+02 F= -.24925904E+02 E0= -.24845624E+02  EK=  .52644E+01 SP=  .00E+00 SK=  .00E+00 mag=      1.000
       N       E                     dE             d eps       ncg     rms          rms(c)                                      
DAV:   1     -.249181251487E+02     .77543E-02    -.54919E-01 11712    .449E+00     .804E-03                                     
RMM:   2     -.249252897706E+02    -.71646E-02    -.51571E-03 10671    .465E-02     .250E-03                                     
RMM:   3     -.249255631178E+02    -.27335E-03    -.14863E-04  6597    .993E-03     .155E-03                                     
RMM:   4     -.249258247907E+02    -.26167E-03    -.24365E-05  4619    .500E-03     .844E-04                                     
RMM:   5     -.249260761057E+02    -.25132E-03    -.88904E-06  5737    .626E-03     .321E-04                                     
RMM:   6     -.249260893833E+02    -.13278E-04    -.50426E-07  2947    .297E-03                                                  
   24 T=  3133. E= -.19661490E+02 F= -.24926089E+02 E0= -.24845811E+02  EK=  .52646E+01 SP=  .00E+00 SK=  .00E+00 mag=      1.000
       N       E                     dE             d eps       ncg     rms          rms(c)                                      
DAV:   1     -.249188213973E+02     .72547E-02    -.11708E+00 11592    .491E+00     .781E-03                                     
RMM:   2     -.249254438609E+02    -.66225E-02    -.30530E-04 10614    .227E-02     .198E-03                                     
RMM:   3     -.249258546750E+02    -.41081E-03    -.12011E-05  6191    .547E-03     .116E-03                                     
RMM:   4     -.249261351029E+02    -.28043E-03    -.53622E-06  5577    .476E-03     .503E-04                                     
RMM:   5     -.249262526177E+02    -.11751E-03    -.40569E-06  4997    .479E-03     .326E-04                                     
RMM:   6     -.249262829410E+02    -.30323E-04    -.11904E-06  3526    .329E-03     .173E-04                                     
RMM:   7     -.249262895673E+02    -.66262E-05    -.48763E-07  3106    .291E-03                                                  
   25 T=  3133. E= -.19661494E+02 F= -.24926290E+02 E0= -.24846012E+02  EK=  .52648E+01 SP=  .00E+00 SK=  .00E+00 mag=      1.000
       N       E                     dE             d eps       ncg     rms          rms(c)                                      
DAV:   1     -.249188841693E+02     .73988E-02    -.66547E-01 11912    .491E+00     .783E-03                                     
RMM:   2     -.249257860820E+02    -.69019E-02    -.15574E-03 10688    .383E-02     .192E-03                                     
RMM:   3     -.249262459408E+02    -.45986E-03    -.34006E-05  6644    .846E-03     .131E-03                                     
RMM:   4     -.249264345242E+02    -.18858E-03    -.55430E-06  4949    .484E-03     .572E-04                                     
RMM:   5     -.249264622228E+02    -.27699E-04    -.12663E-06  4006    .356E-03                                                  
   26 T=  3133. E= -.19661471E+02 F= -.24926462E+02 E0= -.24846185E+02  EK=  .52650E+01 SP=  .00E+00 SK=  .00E+00 mag=      1.000
       N       E                     dE             d eps       ncg     rms          rms(c)                                      
DAV:   1     -.249191542132E+02     .72803E-02    -.44435E-01 11872    .440E+00     .783E-03                                     
RMM:   2     -.249259666993E+02    -.68125E-02    -.61578E-04 10558    .288E-02     .175E-03                                     
RMM:   3     -.249263953152E+02    -.42862E-03    -.12358E-05  6471    .654E-03     .112E-03                                     
RMM:   4     -.249265119604E+02    -.11665E-03    -.25668E-06  4777    .428E-03     .457E-04                                     
RMM:   5     -.249266494830E+02    -.13752E-03    -.56960E-06  5385    .499E-03     .165E-04                                     
RMM:   6     -.249266783732E+02    -.28890E-04    -.28672E-06  3645    .356E-03                                                  
   27 T=  3133. E= -.19661490E+02 F= -.24926678E+02 E0= -.24846402E+02  EK=  .52652E+01 SP=  .00E+00 SK=  .00E+00 mag=      1.000
       N       E                     dE             d eps       ncg     rms          rms(c)                                      
DAV:   1     -.249040578975E+02     .22592E-01    -.15041E+00 12144    .436E+00     .129E-02                                     
RMM:   2     -.249271217353E+02    -.23064E-01    -.16443E-01 10841    .167E-01     .412E-03                                     
RMM:   3     -.249265812795E+02     .54046E-03    -.22720E-03  9781    .255E-02     .337E-03                                     
RMM:   4     -.249267232717E+02    -.14199E-03    -.15068E-04  4832    .794E-03     .238E-03                                     
RMM:   5     -.249267846434E+02    -.61372E-04    -.11699E-05  4305    .426E-03     .173E-03                                     
RMM:   6     -.249268203497E+02    -.35706E-04    -.20914E-06  4540    .389E-03     .850E-04                                     
RMM:   7     -.249268598822E+02    -.39532E-04    -.23362E-06  3859    .357E-03     .419E-04                                     
RMM:   8     -.249268834321E+02    -.23550E-04    -.58697E-06  4984    .491E-03                                                  
   28 T=  3133. E= -.19661498E+02 F= -.24926883E+02 E0= -.24846608E+02  EK=  .52654E+01 SP=  .00E+00 SK=  .00E+00 mag=      1.000
       N       E                     dE             d eps       ncg     rms          rms(c)                                      
DAV:   1     -.249189871679E+02     .78727E-02    -.13393E-01 12920    .319E+00     .803E-03                                     
RMM:   2     -.249263771792E+02    -.73900E-02    -.66979E-03 10835    .607E-02     .373E-03                                     
RMM:   3     -.249268835483E+02    -.50637E-03    -.14243E-04  6626    .113E-02     .258E-03                                     
RMM:   4     -.249269844718E+02    -.10092E-03    -.13400E-05  5246    .552E-03     .148E-03                                     
RMM:   5     -.249270235006E+02    -.39029E-04    -.22124E-06  3858    .362E-03     .998E-04                                     
RMM:   6     -.249270450472E+02    -.21547E-04    -.39137E-06  4931    .448E-03                                                  
   29 T=  3134. E= -.19661463E+02 F= -.24927045E+02 E0= -.24846771E+02  EK=  .52656E+01 SP=  .00E+00 SK=  .00E+00 mag=      1.000
       N       E                     dE             d eps       ncg     rms          rms(c)                                      
DAV:   1     -.249198582272E+02     .71653E-02    -.20149E-01 11896    .288E+00     .788E-03                                     
RMM:   2     -.249263858163E+02    -.65276E-02    -.12366E-04 10400    .204E-02     .337E-03                                     
RMM:   3     -.249269697562E+02    -.58394E-03    -.55044E-06  6012    .549E-03     .371E-03                                     
RMM:   4     -.249270847026E+02    -.11495E-03    -.17161E-06  4486    .399E-03     .176E-03                                     
RMM:   5     -.249272396212E+02    -.15492E-03    -.15589E-05  5718    .600E-03     .495E-04                                     
RMM:   6     -.249272529906E+02    -.13369E-04    -.78023E-06  4756    .478E-03                                                  
   30 T=  3134. E= -.19661474E+02 F= -.24927253E+02 E0= -.24846980E+02  EK=  .52658E+01 SP=  .00E+00 SK=  .00E+00 mag=      1.000
       N       E                     dE             d eps       ncg     rms          rms(c)                                      
DAV:   1     -.249198410798E+02     .73985E-02    -.72583E-01 12432    .385E+00     .786E-03                                     
RMM:   2     -.249266966343E+02    -.68556E-02    -.23539E-03 10694    .332E-02     .378E-03                                     
RMM:   3     -.249270451929E+02    -.34856E-03    -.32895E-05  6351    .740E-03     .266E-03                                     
RMM:   4     -.249273326882E+02    -.28750E-03    -.48981E-06  5326    .473E-03     .506E-04                                     
RMM:   5     -.249274219805E+02    -.89292E-04    -.74227E-06  5588    .626E-03     .291E-04                                     
RMM:   6     -.249274501212E+02    -.28141E-04    -.25053E-06  3749    .365E-03                                                  
   31 T=  3134. E= -.19661474E+02 F= -.24927450E+02 E0= -.24847178E+02  EK=  .52660E+01 SP=  .00E+00 SK=  .00E+00 mag=      1.000
       N       E                     dE             d eps       ncg     rms          rms(c)                                      
DAV:   1     -.249130006175E+02     .14421E-01    -.68446E-01 12424    .365E+00     .937E-03                                     
RMM:   2     -.249265971789E+02    -.13597E-01    -.70055E-02 10618    .122E-01     .382E-03                                     
RMM:   3     -.249272645500E+02    -.66737E-03    -.14005E-03  7001    .183E-02     .217E-03                                     
RMM:   4     -.249274205526E+02    -.15600E-03    -.12008E-04  5548    .773E-03     .141E-03                                     
RMM:   5     -.249275749489E+02    -.15440E-03    -.20113E-05  5993    .606E-03     .660E-04                                     
RMM:   6     -.249276430377E+02    -.68089E-04    -.82862E-06  5034    .479E-03     .372E-04                                     
RMM:   7     -.249276582155E+02    -.15178E-04    -.12611E-05  5014    .550E-03                                                  
   32 T=  3134. E= -.19661484E+02 F= -.24927658E+02 E0= -.24847387E+02  EK=  .52662E+01 SP=  .00E+00 SK=  .00E+00 mag=      1.000
       N       E                     dE             d eps       ncg     rms          rms(c)                                      
DAV:   1     -.249177076168E+02     .99354E-02    -.39490E-01 13152    .395E+00     .852E-03                                     
RMM:   2     -.249270271530E+02    -.93195E-02    -.27249E-02 10904    .663E-02     .323E-03                                     
RMM:   3     -.249275996321E+02    -.57248E-03    -.73319E-04  6918    .128E-02     .165E-03                                     
RMM:   4     -.249276293253E+02    -.29693E-04    -.98192E-05  6018    .684E-03                                                  
   33 T=  3134. E= -.19661259E+02 F= -.24927629E+02 E0= -.24847359E+02  EK=  .52664E+01 SP=  .00E+00 SK=  .00E+00 mag=       .999
       N       E                     dE             d eps       ncg     rms          rms(c)                                      
DAV:   1     -.249153557589E+02     .12244E-01    -.63802E-01 12408    .381E+00     .108E-02                                     
RMM:   2     -.249259920949E+02    -.10636E-01    -.47003E-02 10802    .102E-01     .483E-03                                     
RMM:   3     -.249272172018E+02    -.12251E-02    -.14461E-03  6323    .138E-02     .321E-03                                     
RMM:   4     -.249275385280E+02    -.32133E-03    -.84504E-05  5786    .672E-03     .200E-03                                     
RMM:   5     -.249277954445E+02    -.25692E-03    -.18307E-05  4995    .496E-03     .876E-04                                     
RMM:   6     -.249279849249E+02    -.18948E-03    -.97316E-06  5963    .604E-03     .389E-04                                     
RMM:   7     -.249280332554E+02    -.48330E-04    -.12216E-05  5022    .566E-03     .202E-04                                     
RMM:   8     -.249280472942E+02    -.14039E-04    -.84682E-06  4778    .494E-03                                                  
   34 T=  3134. E= -.19661480E+02 F= -.24928047E+02 E0= -.24847778E+02  EK=  .52666E+01 SP=  .00E+00 SK=  .00E+00 mag=       .999
       N       E                     dE             d eps       ncg     rms          rms(c)                                      
DAV:   1     -.249213314927E+02     .67018E-02    -.13113E+00 13568    .403E+00     .790E-03                                     
RMM:   2     -.249274841449E+02    -.61527E-02    -.75557E-04 11078    .367E-02     .291E-03                                     
RMM:   3     -.249277544876E+02    -.27034E-03    -.22626E-05  6490    .957E-03     .203E-03                                     
RMM:   4     -.249278526874E+02    -.98200E-04    -.98127E-06  5258    .547E-03     .115E-03                                     
RMM:   5     -.249281144094E+02    -.26172E-03    -.27933E-05  5992    .966E-03     .425E-04                                     
RMM:   6     -.249282191321E+02    -.10472E-03    -.11203E-05  4826    .556E-03     .189E-04                                     
RMM:   7     -.249282342582E+02    -.15126E-04    -.47452E-06  4497    .478E-03                                                  
   35 T=  3134. E= -.19661470E+02 F= -.24928234E+02 E0= -.24847967E+02  EK=  .52668E+01 SP=  .00E+00 SK=  .00E+00 mag=       .999
       N       E                     dE             d eps       ncg     rms          rms(c)                                      
DAV:   1     -.249202252467E+02     .79939E-02    -.35926E-01 12712    .444E+00     .814E-03                                     
RMM:   2     -.249277021362E+02    -.74769E-02    -.60698E-03 11003    .558E-02     .314E-03                                     
RMM:   3     -.249277867765E+02    -.84640E-04    -.10304E-04  7397    .123E-02     .205E-03                                     
RMM:   4     -.249281730703E+02    -.38629E-03    -.99458E-06  4888    .534E-03     .997E-04                                     
RMM:   5     -.249283378659E+02    -.16480E-03    -.12389E-05  5628    .587E-03     .392E-04                                     
RMM:   6     -.249284179068E+02    -.80041E-04    -.14208E-05  5425    .633E-03     .222E-04                                     
RMM:   7     -.249284367778E+02    -.18871E-04    -.94918E-06  4898    .627E-03                                                  
   36 T=  3134. E= -.19661477E+02 F= -.24928437E+02 E0= -.24848170E+02  EK=  .52670E+01 SP=  .00E+00 SK=  .00E+00 mag=       .999
       N       E                     dE             d eps       ncg     rms          rms(c)                                      
DAV:   1     -.249198990238E+02     .85189E-02    -.21833E-01 13632    .392E+00     .802E-03                                     
RMM:   2     -.249280005869E+02    -.81016E-02    -.14814E-02 11090    .771E-02     .224E-03                                     
RMM:   3     -.249284038063E+02    -.40322E-03    -.23571E-04  7026    .138E-02     .143E-03                                     
RMM:   4     -.249285573401E+02    -.15353E-03    -.28396E-05  5398    .690E-03     .651E-04                                     
RMM:   5     -.249286037835E+02    -.46443E-04    -.11332E-05  5700    .648E-03     .321E-04                                     
RMM:   6     -.249286199748E+02    -.16191E-04    -.62763E-06  4380    .497E-03                                                  
   37 T=  3134. E= -.19661466E+02 F= -.24928620E+02 E0= -.24848354E+02  EK=  .52672E+01 SP=  .00E+00 SK=  .00E+00 mag=       .999
       N       E                     dE             d eps       ncg     rms          rms(c)                                      
DAV:   1     -.249213762665E+02     .72275E-02    -.21236E-01 12960    .388E+00     .786E-03                                     
RMM:   2     -.249279542807E+02    -.65780E-02    -.16311E-03 10762    .374E-02     .198E-03                                     
RMM:   3     -.249283043234E+02    -.35004E-03    -.18394E-05  6305    .654E-03     .124E-03                                     
RMM:   4     -.249287618255E+02    -.45750E-03    -.19824E-05  6151    .760E-03     .352E-04                                     
RMM:   5     -.249288133666E+02    -.51541E-04    -.20000E-05  5609    .769E-03     .192E-04                                     
RMM:   6     -.249288233060E+02    -.99395E-05    -.82463E-06  4428    .505E-03                                                  
   38 T=  3135. E= -.19661475E+02 F= -.24928823E+02 E0= -.24848558E+02  EK=  .52673E+01 SP=  .00E+00 SK=  .00E+00 mag=       .999
       N       E                     dE             d eps       ncg     rms          rms(c)                                      
DAV:   1     -.249193287400E+02     .94846E-02    -.21363E+00 13392    .443E+00     .820E-03                                     
RMM:   2     -.249282207422E+02    -.88920E-02    -.24202E-02 11154    .960E-02     .188E-03                                     
RMM:   3     -.249285829721E+02    -.36223E-03    -.62359E-04  7116    .182E-02     .111E-03                                     
RMM:   4     -.249287563342E+02    -.17336E-03    -.42298E-05  4902    .668E-03     .722E-04                                     
RMM:   5     -.249289616494E+02    -.20532E-03    -.21168E-05  5706    .694E-03     .255E-04                                     
RMM:   6     -.249290023516E+02    -.40702E-04    -.28163E-05  5450    .776E-03     .160E-04                                     
RMM:   7     -.249290082539E+02    -.59023E-05    -.70560E-06  4273    .465E-03                                                  
   39 T=  3135. E= -.19661467E+02 F= -.24929008E+02 E0= -.24848745E+02  EK=  .52675E+01 SP=  .00E+00 SK=  .00E+00 mag=       .999
       N       E                     dE             d eps       ncg     rms          rms(c)                                      
DAV:   1     -.249069988212E+02     .22004E-01    -.19583E+00 12752    .512E+00     .106E-02                                     
RMM:   2     -.249285768276E+02    -.21578E-01    -.15216E-01 11240    .182E-01     .344E-03                                     
RMM:   3     -.249290271479E+02    -.45032E-03    -.28976E-03  8511    .325E-02     .220E-03                                     
RMM:   4     -.249290652608E+02    -.38113E-04    -.18153E-04  5304    .100E-02     .175E-03                                     
RMM:   5     -.249291062921E+02    -.41031E-04    -.19589E-05  4400    .492E-03     .126E-03                                     
RMM:   6     -.249291771962E+02    -.70904E-04    -.40069E-05  6287    .851E-03     .391E-04                                     
RMM:   7     -.249291954301E+02    -.18234E-04    -.88243E-06  4548    .552E-03                                                  
   40 T=  3135. E= -.19661461E+02 F= -.24929195E+02 E0= -.24848933E+02  EK=  .52677E+01 SP=  .00E+00 SK=  .00E+00 mag=       .999
       N       E                     dE             d eps       ncg     rms          rms(c)                                      
DAV:   1     -.249206386115E+02     .85386E-02    -.21059E+00 13528    .536E+00     .800E-03                                     
RMM:   2     -.249286935689E+02    -.80550E-02    -.16591E-02 11456    .796E-02     .292E-03                                     
RMM:   3     -.249291834278E+02    -.48986E-03    -.26443E-04  7355    .146E-02     .156E-03                                     
RMM:   4     -.249293159143E+02    -.13249E-03    -.23508E-05  5318    .659E-03     .916E-04                                     
RMM:   5     -.249293645368E+02    -.48623E-04    -.10125E-05  5616    .625E-03     .345E-04                                     
RMM:   6     -.249293878945E+02    -.23358E-04    -.29889E-05  5451    .793E-03                                                  
   41 T=  3135. E= -.19661462E+02 F= -.24929388E+02 E0= -.24849126E+02  EK=  .52679E+01 SP=  .00E+00 SK=  .00E+00 mag=       .998
       N       E                     dE             d eps       ncg     rms          rms(c)                                      
DAV:   1     -.249223283988E+02     .70361E-02    -.50706E-01 13184    .516E+00     .784E-03                                     
RMM:   2     -.249289393375E+02    -.66109E-02    -.39062E-04 11271    .282E-02     .292E-03                                     
RMM:   3     -.249293588873E+02    -.41955E-03    -.13404E-05  6935    .849E-03     .260E-03                                     
RMM:   4     -.249293742408E+02    -.15354E-04    -.63406E-06  5114    .506E-03                                                  
   42 T=  3135. E= -.19661261E+02 F= -.24929374E+02 E0= -.24849114E+02  EK=  .52681E+01 SP=  .00E+00 SK=  .00E+00 mag=       .998
       N       E                     dE             d eps       ncg     rms          rms(c)                                      
DAV:   1     -.248634316047E+02     .65927E-01    -.19137E+00 13568    .462E+00     .313E-02                                     
RMM:   2     -.249376407109E+02    -.74209E-01    -.68478E-01 12317    .222E-01     .166E-02                                     
RMM:   3     -.249283441326E+02     .92966E-02    -.96038E-03 10681    .554E-02     .105E-02                                     
RMM:   4     -.249280956446E+02     .24849E-03    -.38239E-04  9890    .185E-02     .745E-03                                     
RMM:   5     -.249286719698E+02    -.57633E-03    -.55215E-05  6537    .851E-03     .598E-03                                     
RMM:   6     -.249288959346E+02    -.22396E-03    -.50025E-06  5524    .488E-03     .411E-03                                     
RMM:   7     -.249293224492E+02    -.42651E-03    -.18145E-05  7629    .824E-03     .196E-03                                     
RMM:   8     -.249294879957E+02    -.16555E-03    -.23848E-05  5167    .604E-03     .161E-03                                     
RMM:   9     -.249297188963E+02    -.23090E-03    -.10090E-04  6948    .117E-02     .580E-04                                     
RMM:  10     -.249297486117E+02    -.29715E-04    -.51952E-05  5919    .893E-03                                                  
   43 T=  3135. E= -.19661447E+02 F= -.24929749E+02 E0= -.24849489E+02  EK=  .52683E+01 SP=  .00E+00 SK=  .00E+00 mag=       .998
       N       E                     dE             d eps       ncg     rms          rms(c)                                      
DAV:   1     -.249236958983E+02     .60230E-02    -.19062E+00 14040    .402E+00     .775E-03                                     
RMM:   2     -.249292715933E+02    -.55757E-02    -.16330E-03 11289    .488E-02     .293E-03                                     
RMM:   3     -.249294400472E+02    -.16845E-03    -.35130E-05  7536    .118E-02     .152E-03                                     
RMM:   4     -.249298469820E+02    -.40693E-03    -.76744E-05  6574    .120E-02     .582E-04                                     
RMM:   5     -.249299221196E+02    -.75138E-04    -.46088E-06  4880    .542E-03     .315E-04                                     
RMM:   6     -.249299449280E+02    -.22808E-04    -.37579E-06  4189    .431E-03                                                  
   44 T=  3135. E= -.19661456E+02 F= -.24929945E+02 E0= -.24849686E+02  EK=  .52685E+01 SP=  .00E+00 SK=  .00E+00 mag=       .998
       N       E                     dE             d eps       ncg     rms          rms(c)                                      
DAV:   1     -.249227192564E+02     .72029E-02    -.90205E-01 13888    .372E+00     .810E-03                                     
RMM:   2     -.249296967259E+02    -.69775E-02    -.20983E-03 12106    .521E-02     .960E-03                                     
RMM:   3     -.249299201058E+02    -.22338E-03    -.36863E-05  7485    .105E-02     .813E-03                                     
RMM:   4     -.249299646258E+02    -.44520E-04    -.19380E-05  6215    .739E-03     .647E-03                                     
RMM:   5     -.249300082010E+02    -.43575E-04    -.21608E-06  5875    .414E-03     .365E-03                                     
RMM:   6     -.249300498261E+02    -.41625E-04    -.64083E-06  7171    .511E-03     .145E-03                                     
RMM:   7     -.249301043861E+02    -.54560E-04    -.10283E-05  5463    .600E-03     .829E-04                                     
RMM:   8     -.249301256375E+02    -.21251E-04    -.15761E-06  4395    .372E-03                                                  
   45 T=  3135. E= -.19661453E+02 F= -.24930126E+02 E0= -.24849868E+02  EK=  .52687E+01 SP=  .00E+00 SK=  .00E+00 mag=       .998
       N       E                     dE             d eps       ncg     rms          rms(c)                                      
DAV:   1     -.249230996362E+02     .70047E-02    -.52064E-01 13720    .449E+00     .778E-03                                     
RMM:   2     -.249297891035E+02    -.66895E-02    -.16950E-03 11634    .452E-02     .163E-03                                     
RMM:   3     -.249301086068E+02    -.31950E-03    -.64573E-05  7228    .104E-02     .106E-03                                     
RMM:   4     -.249302565245E+02    -.14792E-03    -.50461E-05  5953    .904E-03     .694E-04                                     
RMM:   5     -.249303072970E+02    -.50773E-04    -.50736E-06  4725    .469E-03     .397E-04                                     
RMM:   6     -.249303155976E+02    -.83006E-05    -.45472E-06  4597    .466E-03                                                  
   46 T=  3135. E= -.19661463E+02 F= -.24930316E+02 E0= -.24850059E+02  EK=  .52689E+01 SP=  .00E+00 SK=  .00E+00 mag=       .998
       N       E                     dE             d eps       ncg     rms          rms(c)                                      
DAV:   1     -.249236522695E+02     .66550E-02    -.66184E-01 13904    .468E+00     .783E-03                                     
RMM:   2     -.249300194689E+02    -.63672E-02    -.12042E-03 11736    .448E-02     .208E-03                                     
RMM:   3     -.249303145249E+02    -.29506E-03    -.32352E-05  7295    .110E-02     .150E-03                                     
RMM:   4     -.249304533519E+02    -.13883E-03    -.56743E-05  6354    .105E-02     .609E-04                                     
RMM:   5     -.249304780625E+02    -.24711E-04    -.12370E-05  5561    .656E-03                                                  
   47 T=  3136. E= -.19661445E+02 F= -.24930478E+02 E0= -.24850223E+02  EK=  .52690E+01 SP=  .00E+00 SK=  .00E+00 mag=       .997
       N       E                     dE             d eps       ncg     rms          rms(c)                                      
DAV:   1     -.249233794300E+02     .70739E-02    -.10553E+00 14208    .460E+00     .787E-03                                     
RMM:   2     -.249301701423E+02    -.67907E-02    -.55962E-03 11720    .683E-02     .296E-03                                     
RMM:   3     -.249305265104E+02    -.35637E-03    -.11938E-04  7749    .141E-02     .184E-03                                     
RMM:   4     -.249306006499E+02    -.74139E-04    -.15534E-05  5960    .640E-03     .652E-04                                     
RMM:   5     -.249306668061E+02    -.66156E-04    -.78719E-05  6594    .121E-02     .300E-04                                     
RMM:   6     -.249306701502E+02    -.33441E-05    -.28914E-06  3883    .383E-03                                                  
   48 T=  3136. E= -.19661457E+02 F= -.24930670E+02 E0= -.24850416E+02  EK=  .52692E+01 SP=  .00E+00 SK=  .00E+00 mag=       .997
       N       E                     dE             d eps       ncg     rms          rms(c)                                      
DAV:   1     -.249213946874E+02     .92721E-02    -.82810E-01 13768    .441E+00     .823E-03                                     
RMM:   2     -.249301413434E+02    -.87467E-02    -.24182E-02 11663    .108E-01     .246E-03                                     
RMM:   3     -.249306647004E+02    -.52336E-03    -.31757E-04  7404    .147E-02     .120E-03                                     
RMM:   4     -.249308058644E+02    -.14116E-03    -.16351E-04  6911    .138E-02     .840E-04                                     
RMM:   5     -.249308385515E+02    -.32687E-04    -.48350E-05  5911    .812E-03     .446E-04                                     
RMM:   6     -.249308473332E+02    -.87817E-05    -.13116E-05  4558    .426E-03                                                  
   49 T=  3136. E= -.19661454E+02 F= -.24930847E+02 E0= -.24850594E+02  EK=  .52694E+01 SP=  .00E+00 SK=  .00E+00 mag=       .997
       N       E                     dE             d eps       ncg     rms          rms(c)                                      
DAV:   1     -.249245911076E+02     .62474E-02    -.44318E-01 13824    .456E+00     .782E-03                                     
RMM:   2     -.249306525451E+02    -.60614E-02    -.12570E-03 11890    .424E-02     .195E-03                                     
RMM:   3     -.249309830634E+02    -.33052E-03    -.46069E-05  7209    .110E-02     .997E-04                                     
RMM:   4     -.249310115717E+02    -.28508E-04    -.13011E-05  5236    .572E-03                                                  
   50 T=  3136. E= -.19661440E+02 F= -.24931012E+02 E0= -.24850759E+02  EK=  .52696E+01 SP=  .00E+00 SK=  .00E+00 mag=       .997
       N       E                     dE             d eps       ncg     rms          rms(c)                                      
DAV:   1     -.249241940095E+02     .67891E-02    -.70572E-01 14168    .417E+00     .804E-03                                     
RMM:   2     -.249308953360E+02    -.67013E-02    -.56470E-03 12186    .832E-02     .198E-03                                     
RMM:   3     -.249311512113E+02    -.25588E-03    -.19998E-04  8508    .179E-02     .998E-04                                     
RMM:   4     -.249311825217E+02    -.31310E-04    -.84982E-06  5560    .515E-03     .681E-04                                     
RMM:   5     -.249311971860E+02    -.14664E-04    -.21005E-06  3973    .350E-03                                                  
   51 T=  3136. E= -.19661450E+02 F= -.24931197E+02 E0= -.24850946E+02  EK=  .52697E+01 SP=  .00E+00 SK=  .00E+00 mag=       .996
       N       E                     dE             d eps       ncg     rms          rms(c)                                      
DAV:   1     -.249218632360E+02     .93193E-02    -.51319E-01 14160    .451E+00     .883E-03                                     
RMM:   2     -.249308990483E+02    -.90358E-02    -.32007E-02 11703    .137E-01     .284E-03                                     
RMM:   3     -.249313002824E+02    -.40123E-03    -.79102E-04  8319    .245E-02     .164E-03                                     
RMM:   4     -.249313243441E+02    -.24062E-04    -.55440E-05  5797    .767E-03                                                  
   52 T=  3136. E= -.19661401E+02 F= -.24931324E+02 E0= -.24851074E+02  EK=  .52699E+01 SP=  .00E+00 SK=  .00E+00 mag=       .996
       N       E                     dE             d eps       ncg     rms          rms(c)                                      
DAV:   1     -.249242116922E+02     .70886E-02    -.28269E-01 14584    .502E+00     .800E-03                                     
RMM:   2     -.249310518976E+02    -.68402E-02    -.74302E-03 12035    .627E-02     .215E-03                                     
RMM:   3     -.249314586361E+02    -.40674E-03    -.22468E-04  8113    .158E-02     .111E-03                                     
RMM:   4     -.249315004348E+02    -.41799E-04    -.15525E-05  5594    .559E-03     .596E-04                                     
RMM:   5     -.249315269470E+02    -.26512E-04    -.27388E-06  4234    .360E-03                                                  
   53 T=  3136. E= -.19661427E+02 F= -.24931527E+02 E0= -.24851277E+02  EK=  .52701E+01 SP=  .00E+00 SK=  .00E+00 mag=       .996
       N       E                     dE             d eps       ncg     rms          rms(c)                                      
DAV:   1     -.249243760360E+02     .71244E-02    -.12985E+00 14936    .530E+00     .794E-03                                     
RMM:   2     -.249312787655E+02    -.69027E-02    -.12290E-02 12449    .979E-02     .216E-03                                     
RMM:   3     -.249316486176E+02    -.36985E-03    -.24297E-04  8368    .180E-02     .171E-03                                     
RMM:   4     -.249316867898E+02    -.38172E-04    -.23262E-05  5630    .626E-03     .104E-03                                     
RMM:   5     -.249317017714E+02    -.14982E-04    -.38800E-06  4563    .407E-03                                                  
   54 T=  3136. E= -.19661430E+02 F= -.24931702E+02 E0= -.24851453E+02  EK=  .52703E+01 SP=  .00E+00 SK=  .00E+00 mag=       .995
       N       E                     dE             d eps       ncg     rms          rms(c)                                      
DAV:   1     -.249252506998E+02     .64361E-02    -.26814E-01 14416    .448E+00     .795E-03                                     
RMM:   2     -.249316579204E+02    -.64072E-02    -.51662E-03 12224    .703E-02     .170E-03                                     
RMM:   3     -.249318292927E+02    -.17137E-03    -.13460E-04  7927    .138E-02     .903E-04                                     
RMM:   4     -.249318698511E+02    -.40558E-04    -.83617E-06  5038    .496E-03     .590E-04                                     
RMM:   5     -.249318769616E+02    -.71105E-05    -.12312E-06  3896    .340E-03                                                  
   55 T=  3136. E= -.19661434E+02 F= -.24931877E+02 E0= -.24851629E+02  EK=  .52704E+01 SP=  .00E+00 SK=  .00E+00 mag=       .995
       N       E                     dE             d eps       ncg     rms          rms(c)                                      
DAV:   1     -.249251226463E+02     .67472E-02    -.36078E-01 14544    .393E+00     .795E-03                                     
RMM:   2     -.249317408709E+02    -.66182E-02    -.11612E-02 12312    .960E-02     .202E-03                                     
RMM:   3     -.249319888830E+02    -.24801E-03    -.22645E-04  7950    .159E-02     .103E-03                                     
RMM:   4     -.249320112065E+02    -.22324E-04    -.11361E-05  5154    .522E-03                                                  
   56 T=  3137. E= -.19661398E+02 F= -.24932011E+02 E0= -.24851764E+02  EK=  .52706E+01 SP=  .00E+00 SK=  .00E+00 mag=       .995
       N       E                     dE             d eps       ncg     rms          rms(c)                                      
DAV:   1     -.249258848182E+02     .61041E-02    -.10902E+00 14376    .471E+00     .795E-03                                     
RMM:   2     -.249319215571E+02    -.60367E-02    -.49016E-03 12339    .727E-02     .189E-03                                     
RMM:   3     -.249321516462E+02    -.23009E-03    -.16110E-04  8122    .147E-02     .928E-04                                     
RMM:   4     -.249321829944E+02    -.31348E-04    -.12115E-05  5415    .540E-03     .474E-04                                     
RMM:   5     -.249322093249E+02    -.26331E-04    -.83330E-06  4959    .490E-03                                                  
   57 T=  3137. E= -.19661427E+02 F= -.24932209E+02 E0= -.24851963E+02  EK=  .52708E+01 SP=  .00E+00 SK=  .00E+00 mag=       .994
       N       E                     dE             d eps       ncg     rms          rms(c)                                      
DAV:   1     -.249251268378E+02     .70562E-02    -.10124E+00 14256    .470E+00     .799E-03                                     
RMM:   2     -.249321040616E+02    -.69772E-02    -.15775E-02 12420    .914E-02     .214E-03                                     
RMM:   3     -.249323297452E+02    -.22568E-03    -.48662E-04  8168    .152E-02     .105E-03                                     
RMM:   4     -.249323648856E+02    -.35140E-04    -.39586E-05  5482    .679E-03     .764E-04                                     
RMM:   5     -.249323738680E+02    -.89824E-05    -.36380E-06  3733    .339E-03                                                  
   58 T=  3137. E= -.19661424E+02 F= -.24932374E+02 E0= -.24852128E+02  EK=  .52710E+01 SP=  .00E+00 SK=  .00E+00 mag=       .994
       N       E                     dE             d eps       ncg     rms          rms(c)                                      
DAV:   1     -.249231104579E+02     .92544E-02    -.29266E+00 14616    .442E+00     .827E-03                                     
RMM:   2     -.249323456011E+02    -.92351E-02    -.38386E-02 12586    .157E-01     .193E-03                                     
RMM:   3     -.249324961870E+02    -.15059E-03    -.63290E-04  8211    .217E-02     .110E-03                                     
RMM:   4     -.249325278447E+02    -.31658E-04    -.33558E-05  5013    .637E-03     .804E-04                                     
RMM:   5     -.249325389836E+02    -.11139E-04    -.43801E-06  4206    .398E-03                                                  
   59 T=  3137. E= -.19661420E+02 F= -.24932539E+02 E0= -.24852295E+02  EK=  .52711E+01 SP=  .00E+00 SK=  .00E+00 mag=       .993
       N       E                     dE             d eps       ncg     rms          rms(c)                                      
DAV:   1     -.249274187890E+02     .51091E-02    -.42997E-01 13864    .398E+00     .792E-03                                     
RMM:   2     -.249324739624E+02    -.50552E-02    -.21156E-03 12419    .598E-02     .263E-03                                     
RMM:   3     -.249326855077E+02    -.21155E-03    -.11944E-04  8077    .143E-02     .111E-03                                     
RMM:   4     -.249326942730E+02    -.87653E-05    -.21048E-06  5054    .427E-03                                                  
   60 T=  3137. E= -.19661405E+02 F= -.24932694E+02 E0= -.24852451E+02  EK=  .52713E+01 SP=  .00E+00 SK=  .00E+00 mag=       .993
       N       E                     dE             d eps       ncg     rms          rms(c)                                      
DAV:   1     -.249274295829E+02     .52559E-02    -.14398E+00 14136    .397E+00     .792E-03                                     
RMM:   2     -.249327324187E+02    -.53028E-02    -.47884E-03 12512    .771E-02     .261E-03                                     
RMM:   3     -.249328482706E+02    -.11585E-03    -.10654E-04  7851    .124E-02     .177E-03                                     
RMM:   4     -.249328650696E+02    -.16799E-04    -.55177E-06  5260    .475E-03                                                  
   61 T=  3137. E= -.19661405E+02 F= -.24932865E+02 E0= -.24852622E+02  EK=  .52715E+01 SP=  .00E+00 SK=  .00E+00 mag=       .992
       N       E                     dE             d eps       ncg     rms          rms(c)                                      
DAV:   1     -.249257025386E+02     .71457E-02    -.16296E+00 13936    .496E+00     .887E-03                                     
RMM:   2     -.249328605443E+02    -.71580E-02    -.26024E-02 12381    .118E-01     .339E-03                                     
RMM:   3     -.249329707745E+02    -.11023E-03    -.38752E-04  9340    .154E-02     .159E-03                                     
RMM:   4     -.249330305920E+02    -.59818E-04    -.24317E-05  5236    .579E-03     .129E-03                                     
RMM:   5     -.249330384605E+02    -.78685E-05    -.33360E-06  4484    .397E-03                                                  
   62 T=  3137. E= -.19661407E+02 F= -.24933038E+02 E0= -.24852797E+02  EK=  .52716E+01 SP=  .00E+00 SK=  .00E+00 mag=       .992
       N       E                     dE             d eps       ncg     rms          rms(c)                                      
DAV:   1     -.249282026325E+02     .48280E-02    -.10067E+00 14288    .532E+00     .795E-03                                     
RMM:   2     -.249329932413E+02    -.47906E-02    -.29693E-03 12845    .775E-02     .224E-03                                     
RMM:   3     -.249331936307E+02    -.20039E-03    -.14992E-04  8401    .158E-02     .102E-03                                     
RMM:   4     -.249332072007E+02    -.13570E-04    -.40059E-06  5040    .455E-03                                                  
   63 T=  3137. E= -.19661403E+02 F= -.24933207E+02 E0= -.24852965E+02  EK=  .52718E+01 SP=  .00E+00 SK=  .00E+00 mag=       .991
       N       E                     dE             d eps       ncg     rms          rms(c)                                      
DAV:   1     -.249273269081E+02     .58667E-02    -.90035E-01 14592    .554E+00     .798E-03                                     
RMM:   2     -.249331837541E+02    -.58568E-02    -.11047E-02 12951    .112E-01     .360E-03                                     
RMM:   3     -.249333575289E+02    -.17377E-03    -.21396E-04  9218    .165E-02     .199E-03                                     
RMM:   4     -.249333642427E+02    -.67137E-05    -.12962E-05  6535    .579E-03                                                  
   64 T=  3137. E= -.19661384E+02 F= -.24933364E+02 E0= -.24853123E+02  EK=  .52720E+01 SP=  .00E+00 SK=  .00E+00 mag=       .991
       N       E                     dE             d eps       ncg     rms          rms(c)                                      
DAV:   1     -.249282784512E+02     .50791E-02    -.14147E+00 14344    .537E+00     .815E-03                                     
RMM:   2     -.249333734382E+02    -.50950E-02    -.30753E-03 12705    .728E-02     .204E-03                                     
RMM:   3     -.249334792694E+02    -.10583E-03    -.57505E-05  7968    .101E-02     .150E-03                                     
RMM:   4     -.249335116919E+02    -.32423E-04    -.56642E-06  5542    .496E-03     .877E-04                                     
RMM:   5     -.249335373289E+02    -.25637E-04    -.37614E-06  5006    .433E-03                                                  
   65 T=  3137. E= -.19661379E+02 F= -.24933537E+02 E0= -.24853297E+02  EK=  .52722E+01 SP=  .00E+00 SK=  .00E+00 mag=       .990
       N       E                     dE             d eps       ncg     rms          rms(c)                                      
DAV:   1     -.249293298179E+02     .41819E-02    -.78456E-01 14368    .440E+00     .818E-03                                     
RMM:   2     -.249336546225E+02    -.43248E-02    -.89804E-03 12644    .956E-02     .195E-03                                     
RMM:   3     -.249337060082E+02    -.51386E-04    -.89707E-05  7609    .976E-03     .105E-03                                     
RMM:   4     -.249337285383E+02    -.22530E-04    -.89551E-06  5294    .527E-03                                                  
   66 T=  3138. E= -.19661389E+02 F= -.24933729E+02 E0= -.24853489E+02  EK=  .52723E+01 SP=  .00E+00 SK=  .00E+00 mag=       .989
       N       E                     dE             d eps       ncg     rms          rms(c)                                      
DAV:   1     -.249299274536E+02     .37786E-02    -.47694E-01 14224    .397E+00     .840E-03                                     
RMM:   2     -.249338534577E+02    -.39260E-02    -.38295E-03 12739    .812E-02     .229E-03                                     
RMM:   3     -.249338945984E+02    -.41141E-04    -.54763E-05  7504    .857E-03     .132E-03                                     
RMM:   4     -.249339101937E+02    -.15595E-04    -.45183E-06  5676    .497E-03                                                  
   67 T=  3138. E= -.19661383E+02 F= -.24933910E+02 E0= -.24853671E+02  EK=  .52725E+01 SP=  .00E+00 SK=  .00E+00 mag=       .989
       N       E                     dE             d eps       ncg     rms          rms(c)                                      
DAV:   1     -.249304016671E+02     .34929E-02    -.10393E-01 14048    .311E+00     .808E-03                                     
RMM:   2     -.249340202973E+02    -.36186E-02    -.26884E-03 12544    .721E-02     .171E-03                                     
RMM:   3     -.249340791141E+02    -.58817E-04    -.34388E-05  7598    .839E-03     .905E-04                                     
RMM:   4     -.249340958693E+02    -.16755E-04    -.30540E-06  4966    .412E-03                                                  
   68 T=  3138. E= -.19661376E+02 F= -.24934096E+02 E0= -.24853857E+02  EK=  .52727E+01 SP=  .00E+00 SK=  .00E+00 mag=       .988
       N       E                     dE             d eps       ncg     rms          rms(c)                                      
DAV:   1     -.249300997159E+02     .39794E-02    -.78533E-01 13872    .423E+00     .790E-03                                     
RMM:   2     -.249341621598E+02    -.40624E-02    -.36667E-03 12841    .858E-02     .256E-03                                     
RMM:   3     -.249342610461E+02    -.98886E-04    -.65946E-05  8617    .109E-02     .150E-03                                     
RMM:   4     -.249342855659E+02    -.24520E-04    -.90865E-06  5680    .504E-03                                                  
   69 T=  3138. E= -.19661369E+02 F= -.24934286E+02 E0= -.24854048E+02  EK=  .52729E+01 SP=  .00E+00 SK=  .00E+00 mag=       .987
       N       E                     dE             d eps       ncg     rms          rms(c)                                      
DAV:   1     -.249270886058E+02     .71724E-02    -.11381E+00 14312    .526E+00     .804E-03                                     
RMM:   2     -.249342027995E+02    -.71142E-02    -.36518E-02 12853    .141E-01     .203E-03                                     
RMM:   3     -.249344629311E+02    -.26013E-03    -.16375E-03  8812    .167E-02     .206E-03                                     
RMM:   4     -.249344847429E+02    -.21812E-04    -.78272E-05  4977    .549E-03                                                  
   70 T=  3138. E= -.19661363E+02 F= -.24934485E+02 E0= -.24854247E+02  EK=  .52731E+01 SP=  .00E+00 SK=  .00E+00 mag=       .986
       N       E                     dE             d eps       ncg     rms          rms(c)                                      
DAV:   1     -.249303358170E+02     .41271E-02    -.16784E+00 14608    .529E+00     .816E-03                                     
RMM:   2     -.249346306208E+02    -.42948E-02    -.10245E-02 13107    .123E-01     .305E-03                                     
RMM:   3     -.249346859671E+02    -.55346E-04    -.17891E-04  9176    .128E-02     .134E-03                                     
RMM:   4     -.249347002050E+02    -.14238E-04    -.15691E-05  5322    .522E-03                                                  
   71 T=  3138. E= -.19661363E+02 F= -.24934700E+02 E0= -.24854463E+02  EK=  .52733E+01 SP=  .00E+00 SK=  .00E+00 mag=       .985
       N       E                     dE             d eps       ncg     rms          rms(c)                                      
DAV:   1     -.249313356201E+02     .33503E-02    -.11729E+00 14208    .649E+00     .852E-03                                     
RMM:   2     -.249348520054E+02    -.35164E-02    -.11028E-02 13078    .116E-01     .373E-03                                     
RMM:   3     -.249349049291E+02    -.52924E-04    -.17797E-04  9280    .126E-02     .163E-03                                     
RMM:   4     -.249349156558E+02    -.10727E-04    -.11548E-05  5086    .478E-03                                                  
   72 T=  3138. E= -.19661354E+02 F= -.24934916E+02 E0= -.24854680E+02  EK=  .52736E+01 SP=  .00E+00 SK=  .00E+00 mag=       .984
       N       E                     dE             d eps       ncg     rms          rms(c)                                      
DAV:   1     -.249307204653E+02     .41845E-02    -.12908E+00 15048    .504E+00     .975E-03                                     
RMM:   2     -.249349651258E+02    -.42447E-02    -.23913E-02 12894    .156E-01     .469E-03                                     
RMM:   3     -.249350596113E+02    -.94485E-04    -.35234E-04  9026    .163E-02     .369E-03                                     
RMM:   4     -.249350889673E+02    -.29356E-04    -.24201E-05  6783    .709E-03                                                  
   73 T=  3138. E= -.19661291E+02 F= -.24935089E+02 E0= -.24854854E+02  EK=  .52738E+01 SP=  .00E+00 SK=  .00E+00 mag=       .983
       N       E                     dE             d eps       ncg     rms          rms(c)                                      
DAV:   1     -.249325249383E+02     .25347E-02    -.47320E-01 14864    .434E+00     .846E-03                                     
RMM:   2     -.249352654944E+02    -.27406E-02    -.33495E-03 12847    .926E-02     .242E-03                                     
RMM:   3     -.249353236724E+02    -.58178E-04    -.26496E-05  7946    .894E-03     .160E-03                                     
RMM:   4     -.249353896903E+02    -.66018E-04    -.10084E-05  6342    .588E-03     .773E-04                                     
RMM:   5     -.249354066513E+02    -.16961E-04    -.50377E-06  5664    .506E-03                                                  
   74 T=  3139. E= -.19661360E+02 F= -.24935407E+02 E0= -.24855171E+02  EK=  .52740E+01 SP=  .00E+00 SK=  .00E+00 mag=       .982
       N       E                     dE             d eps       ncg     rms          rms(c)                                      
DAV:   1     -.249333720236E+02     .20177E-02    -.62502E-01 14376    .508E+00     .822E-03                                     
RMM:   2     -.249355948987E+02    -.22229E-02    -.16676E-03 12686    .690E-02     .269E-03                                     
RMM:   3     -.249356477120E+02    -.52813E-04    -.28192E-05  9068    .878E-03     .207E-03                                     
RMM:   4     -.249356622605E+02    -.14549E-04    -.91403E-06  8059    .570E-03                                                  
   75 T=  3139. E= -.19661349E+02 F= -.24935662E+02 E0= -.24855427E+02  EK=  .52743E+01 SP=  .00E+00 SK=  .00E+00 mag=       .981
       N       E                     dE             d eps       ncg     rms          rms(c)                                      
DAV:   1     -.249330809037E+02     .25668E-02    -.10717E+00 14920    .507E+00     .944E-03                                     
RMM:   2     -.249358494248E+02    -.27685E-02    -.91797E-03 13018    .117E-01     .216E-03                                     
RMM:   3     -.249359164285E+02    -.67004E-04    -.95989E-05  8325    .108E-02     .117E-03                                     
RMM:   4     -.249359489402E+02    -.32512E-04    -.15532E-05  6330    .665E-03     .560E-04                                     
RMM:   5     -.249359504752E+02    -.15350E-05    -.15533E-06  4142    .354E-03                                                  
   76 T=  3139. E= -.19661351E+02 F= -.24935950E+02 E0= -.24855716E+02  EK=  .52746E+01 SP=  .00E+00 SK=  .00E+00 mag=       .980
       N       E                     dE             d eps       ncg     rms          rms(c)                                      
DAV:   1     -.249328015381E+02     .31474E-02    -.73612E-01 14208    .488E+00     .853E-03                                     
RMM:   2     -.249361638069E+02    -.33623E-02    -.22275E-02 12262    .110E-01     .279E-03                                     
RMM:   3     -.249362470622E+02    -.83255E-04    -.47646E-04  8259    .129E-02     .109E-03                                     
RMM:   4     -.249362523706E+02    -.53084E-05    -.27406E-05  4459    .487E-03                                                  
   77 T=  3139. E= -.19661346E+02 F= -.24936252E+02 E0= -.24856018E+02  EK=  .52749E+01 SP=  .00E+00 SK=  .00E+00 mag=       .979
[...]
RMM:   9     -.277601702919E+02    -.21147E+01    -.26028E+00 16410    .287E+00     .544E+00                                     
RMM:  10     -.249168102524E+02     .28434E+01    -.12315E+00 16409    .213E+00     .939E-01                                     
RMM:  11     -.248856687740E+02     .31141E-01    -.97037E-02 16413    .803E-01     .246E-01                                     
RMM:  12     -.248825639702E+02     .31048E-02    -.42079E-03 16431    .165E-01     .143E-01                                     
RMM:  13     -.248838454624E+02    -.12815E-02    -.17377E-03 16376    .124E-01     .571E-02                                     
RMM:  14     -.248846706364E+02    -.82517E-03    -.87992E-05 10876    .288E-02     .231E-02                                     
RMM:  15     -.248850249005E+02    -.35426E-03    -.30556E-05  9997    .170E-02     .815E-03                                     
RMM:  16     -.248850543558E+02    -.29455E-04    -.56635E-06  9536    .714E-03                                                  
  602 T=  3111. E= -.19657611E+02 F= -.24885054E+02 E0= -.24805529E+02  EK=  .52274E+01 SP=  .00E+00 SK=  .00E+00 mag=       .999
       N       E                     dE             d eps       ncg     rms          rms(c)                                      
DAV:   1      .111331862402E+04     .11133E+04    -.62918E+04 16320    .996E+02                                                  
DAV:   2      .171914139351E+02    -.10961E+04    -.10393E+04 16864    .279E+02                                                  
DAV:   3     -.254422968830E+02    -.42634E+02    -.42085E+02 18096    .673E+01                                                  
DAV:   4     -.258188309304E+02    -.37653E+00    -.37602E+00 18056    .607E+00                                                  
DAV:   5     -.258234753953E+02    -.46445E-02    -.46444E-02 18200    .569E-01     .167E+01                                     
RMM:   6     -.243010255597E+02     .15224E+01    -.57528E+00 16320    .812E+00     .106E+01                                     
RMM:   7     -.301962771636E+02    -.58953E+01    -.11949E+01 16366    .705E+00     .870E+00                                     
RMM:   8     -.256394832225E+02     .45568E+01    -.91206E+00 16404    .566E+00     .464E+00                                     
RMM:   9     -.277771739691E+02    -.21377E+01    -.26052E+00 16410    .287E+00     .545E+00                                     
RMM:  10     -.249165284855E+02     .28606E+01    -.12372E+00 16409    .213E+00     .939E-01                                     
RMM:  11     -.248855665851E+02     .30962E-01    -.96941E-02 16412    .803E-01     .246E-01                                     
RMM:  12     -.248824493068E+02     .31173E-02    -.42039E-03 16433    .165E-01     .143E-01                                     
RMM:  13     -.248837277543E+02    -.12784E-02    -.17412E-03 16378    .124E-01     .571E-02                                     
RMM:  14     -.248845567656E+02    -.82901E-03    -.87654E-05 10862    .288E-02     .231E-02                                     
RMM:  15     -.248849137990E+02    -.35703E-03    -.30452E-05 10005    .170E-02     .815E-03                                     
RMM:  16     -.248849431139E+02    -.29315E-04    -.56438E-06  9536    .712E-03                                                  
  603 T=  3111. E= -.19657611E+02 F= -.24884943E+02 E0= -.24805418E+02  EK=  .52273E+01 SP=  .00E+00 SK=  .00E+00 mag=       .999
       N       E                     dE             d eps       ncg     rms          rms(c)                                      
DAV:   1     -.244306270699E+02     .45429E+00    -.15333E-01 16976    .165E-01     .300E-01                                     
RMM:   2     -.245683603903E+02    -.13773E+00    -.73545E-04 10391    .256E-02     .216E-01                                     
RMM:   3     -.248672018425E+02    -.29884E+00    -.13997E-03 14075    .401E-02     .513E-02                                     
RMM:   4     -.248656018597E+02     .16000E-02    -.19748E-04 14066    .259E-02     .235E-02                                     
RMM:   5     -.248797654559E+02    -.14164E-01    -.99021E-06  9464    .693E-03     .986E-03                                     
RMM:   6     -.248837490560E+02    -.39836E-02    -.15067E-05  9675    .730E-03     .721E-03                                     
RMM:   7     -.248846160901E+02    -.86703E-03    -.84420E-06  8121    .578E-03     .727E-04                                     
RMM:   8     -.248846204520E+02    -.43618E-05    -.70255E-08  2663    .212E-03                                                  
  604 T=  3111. E= -.19657397E+02 F= -.24884620E+02 E0= -.24805094E+02  EK=  .52272E+01 SP=  .00E+00 SK=  .00E+00 mag=      1.000
       N       E                     dE             d eps       ncg     rms          rms(c)                                      
DAV:   1     -.248307560263E+02     .53860E-01    -.23088E-01 12400    .194E+00     .417E-02                                     
RMM:   2     -.248470199427E+02    -.16264E-01    -.15472E-02 10437    .725E-02     .294E-02                                     
RMM:   3     -.248772325363E+02    -.30213E-01    -.33193E-04 10611    .189E-02     .200E-02                                     
RMM:   4     -.248828703316E+02    -.56378E-02    -.70225E-05 10364    .144E-02     .832E-03                                     
RMM:   5     -.248846332674E+02    -.17629E-02    -.21311E-05  9896    .887E-03     .529E-03                                     
RMM:   6     -.248846136684E+02     .19599E-04    -.89189E-06  7348    .580E-03                                                  
  605 T=  3111. E= -.19657500E+02 F= -.24884614E+02 E0= -.24805086E+02  EK=  .52271E+01 SP=  .00E+00 SK=  .00E+00 mag=      1.000
       N       E                     dE             d eps       ncg     rms          rms(c)                                      
DAV:   1     -.248759068750E+02     .87264E-02    -.19055E+00 13136    .621E+00     .883E-03                                     
RMM:   2     -.248792230201E+02    -.33161E-02    -.14701E-02 11007    .704E-02     .563E-03                                     
RMM:   3     -.248805524138E+02    -.13294E-02    -.29674E-04  8043    .118E-02     .676E-03                                     
RMM:   4     -.248824813924E+02    -.19290E-02    -.19153E-05  5937    .545E-03     .246E-03                                     
RMM:   5     -.248839471902E+02    -.14658E-02    -.29805E-06  5185    .398E-03     .177E-03                                     
RMM:   6     -.248846122240E+02    -.66503E-03    -.28789E-06  4517    .388E-03     .364E-04                                     
RMM:   7     -.248845595815E+02     .52642E-04    -.96153E-07  3519    .331E-03     .218E-04                                     
RMM:   8     -.248845790848E+02    -.19503E-04    -.62977E-08  1991    .240E-03                                                  
  606 T=  3111. E= -.19657575E+02 F= -.24884579E+02 E0= -.24805052E+02  EK=  .52270E+01 SP=  .00E+00 SK=  .00E+00 mag=      1.000
       N       E                     dE             d eps       ncg     rms          rms(c)                                      
DAV:   1     -.248770417092E+02     .75179E-02    -.30870E+00 11776    .676E+00     .868E-03                                     
RMM:   2     -.248789910881E+02    -.19494E-02    -.40468E-04 10753    .238E-02     .608E-03                                     
RMM:   3     -.248824083771E+02    -.34173E-02    -.11662E-05  8078    .640E-03     .471E-03                                     
RMM:   4     -.248841168367E+02    -.17085E-02    -.33938E-06  6175    .454E-03     .261E-03                                     
RMM:   5     -.248844607183E+02    -.34388E-03    -.38969E-06  5522    .486E-03     .126E-03                                     
RMM:   6     -.248844246981E+02     .36020E-04    -.23182E-07  2674    .261E-03     .551E-04                                     
RMM:   7     -.248844675645E+02    -.42866E-04    -.36204E-08  2303    .235E-03     .260E-04                                     
RMM:   8     -.248845038363E+02    -.36272E-04    -.28076E-07  2617    .265E-03     .792E-05                                     
RMM:   9     -.248845055759E+02    -.17396E-05    -.13025E-08  1726    .230E-03                                                  
  607 T=  3111. E= -.19657609E+02 F= -.24884506E+02 E0= -.24804978E+02  EK=  .52269E+01 SP=  .00E+00 SK=  .00E+00 mag=      1.000
       N       E                     dE             d eps       ncg     rms          rms(c)                                      
DAV:   1     -.248762253002E+02     .82785E-02    -.15044E+00 11552    .864E+00     .797E-03                                     
RMM:   2     -.248788092766E+02    -.25840E-02    -.68343E-03 11171    .493E-02     .543E-03                                     
RMM:   3     -.248822850967E+02    -.34758E-02    -.10931E-04  6338    .788E-03     .218E-03                                     
RMM:   4     -.248842726564E+02    -.19876E-02    -.13377E-05  5769    .532E-03     .169E-03                                     
RMM:   5     -.248843756602E+02    -.10300E-03    -.27197E-06  4099    .403E-03     .865E-04                                     
RMM:   6     -.248843556230E+02     .20037E-04    -.17932E-07  2291    .266E-03                                                  
  608 T=  3110. E= -.19657564E+02 F= -.24884356E+02 E0= -.24804828E+02  EK=  .52268E+01 SP=  .00E+00 SK=  .00E+00 mag=      1.000
       N       E                     dE             d eps       ncg     rms          rms(c)                                      
DAV:   1     -.248752931261E+02     .90825E-02    -.83371E-01 12808    .894E+00     .840E-03                                     
RMM:   2     -.248788572804E+02    -.35642E-02    -.16923E-02 11790    .112E-01     .569E-03                                     
RMM:   3     -.248808786821E+02    -.20214E-02    -.33131E-04  7273    .167E-02     .352E-03                                     
RMM:   4     -.248837805544E+02    -.29019E-02    -.32502E-05  6554    .768E-03     .113E-03                                     
RMM:   5     -.248842158329E+02    -.43528E-03    -.42735E-06  4257    .395E-03     .107E-03                                     
RMM:   6     -.248842939250E+02    -.78092E-04    -.10517E-06  3845    .348E-03     .609E-04                                     
RMM:   7     -.248842653278E+02     .28597E-04    -.39218E-07  2815    .299E-03                                                  
  609 T=  3110. E= -.19657578E+02 F= -.24884265E+02 E0= -.24804738E+02  EK=  .52267E+01 SP=  .00E+00 SK=  .00E+00 mag=      1.000
       N       E                     dE             d eps       ncg     rms          rms(c)                                      
DAV:   1     -.248542376730E+02     .30056E-01    -.18732E+00 11176    .797E+00     .981E-03                                     
RMM:   2     -.248808464599E+02    -.26609E-01    -.24718E-01 11171    .164E-01     .589E-03                                     
RMM:   3     -.248797219367E+02     .11245E-02    -.39712E-03  8646    .233E-02     .677E-03                                     
RMM:   4     -.248803141442E+02    -.59221E-03    -.23091E-04  4747    .752E-03     .400E-03                                     
RMM:   5     -.248822341361E+02    -.19200E-02    -.13332E-05  4749    .412E-03     .221E-03                                     
RMM:   6     -.248834397842E+02    -.12056E-02    -.27348E-06  4627    .374E-03     .148E-03                                     
RMM:   7     -.248841471261E+02    -.70734E-03    -.16050E-06  4275    .366E-03     .453E-04                                     
RMM:   8     -.248841865543E+02    -.39428E-04    -.65241E-07  3221    .329E-03     .289E-04                                     
RMM:   9     -.248841833812E+02     .31730E-05    -.88062E-08  2177    .263E-03                                                  
  610 T=  3110. E= -.19657600E+02 F= -.24884183E+02 E0= -.24804656E+02  EK=  .52266E+01 SP=  .00E+00 SK=  .00E+00 mag=      1.000
       N       E                     dE             d eps       ncg     rms          rms(c)                                      
DAV:   1     -.248764698797E+02     .77167E-02    -.11195E+00 11344    .808E+00     .802E-03                                     
RMM:   2     -.248784993982E+02    -.20295E-02    -.12150E-03 11124    .338E-02     .555E-03                                     
RMM:   3     -.248826520213E+02    -.41526E-02    -.22579E-05  7916    .724E-03     .332E-03                                     
RMM:   4     -.248837295984E+02    -.10776E-02    -.29096E-06  5027    .426E-03     .205E-03                                     
RMM:   5     -.248839963652E+02    -.26677E-03    -.33806E-06  5126    .470E-03     .118E-03                                     
RMM:   6     -.248839862736E+02     .10092E-04    -.12781E-07  2343    .257E-03                                                  
  611 T=  3110. E= -.19657506E+02 F= -.24883986E+02 E0= -.24804459E+02  EK=  .52265E+01 SP=  .00E+00 SK=  .00E+00 mag=      1.000
       N       E                     dE             d eps       ncg     rms          rms(c)                                      
DAV:   1     -.248725927685E+02     .11404E-01    -.23906E+00 12232    .778E+00     .861E-03                                     
RMM:   2     -.248784898189E+02    -.58971E-02    -.40277E-02 11265    .121E-01     .568E-03                                     
RMM:   3     -.248803085631E+02    -.18187E-02    -.98413E-04  6814    .180E-02     .398E-03                                     
RMM:   4     -.248813826708E+02    -.10741E-02    -.68822E-05  5446    .735E-03     .421E-03                                     
RMM:   5     -.248831098603E+02    -.17272E-02    -.97864E-06  5331    .455E-03     .221E-03                                     
RMM:   6     -.248838169389E+02    -.70708E-03    -.14492E-06  3926    .352E-03     .622E-04                                     
RMM:   7     -.248839454816E+02    -.12854E-03    -.18349E-06  4214    .400E-03     .303E-04                                     
RMM:   8     -.248839350568E+02     .10425E-04    -.89659E-08  2050    .261E-03                                                  
  612 T=  3110. E= -.19657557E+02 F= -.24883935E+02 E0= -.24804407E+02  EK=  .52264E+01 SP=  .00E+00 SK=  .00E+00 mag=      1.000
       N       E                     dE             d eps       ncg     rms          rms(c)                                      
DAV:   1     -.248756669097E+02     .82786E-02    -.19362E+00 12288    .769E+00     .802E-03                                     
RMM:   2     -.248782471923E+02    -.25803E-02    -.66458E-03 11602    .679E-02     .551E-03                                     
RMM:   3     -.248824386105E+02    -.41914E-02    -.81372E-05  7529    .974E-03     .176E-03                                     
RMM:   4     -.248835845549E+02    -.11459E-02    -.87210E-06  6091    .530E-03     .306E-03                                     
RMM:   5     -.248838475139E+02    -.26296E-03    -.26116E-06  4819    .430E-03     .739E-04                                     
RMM:   6     -.248838307632E+02     .16751E-04    -.19031E-07  2579    .269E-03                                                  
  613 T=  3110. E= -.19657554E+02 F= -.24883831E+02 E0= -.24804303E+02  EK=  .52263E+01 SP=  .00E+00 SK=  .00E+00 mag=      1.000
       N       E                     dE             d eps       ncg     rms          rms(c)                                      
DAV:   1     -.248753983635E+02     .84492E-02    -.12311E+00 11592    .715E+00     .822E-03                                     
RMM:   2     -.248783200474E+02    -.29217E-02    -.10515E-02 11325    .728E-02     .570E-03                                     
RMM:   3     -.248801200691E+02    -.18000E-02    -.16732E-04  7948    .118E-02     .544E-03                                     
RMM:   4     -.248819631013E+02    -.18430E-02    -.16272E-05  5425    .562E-03     .269E-03                                     
RMM:   5     -.248832693529E+02    -.13063E-02    -.26331E-06  5312    .411E-03     .168E-03                                     
RMM:   6     -.248836945394E+02    -.42519E-03    -.31634E-06  4785    .444E-03     .345E-04                                     
RMM:   7     -.248837066449E+02    -.12106E-04    -.10258E-07  2149    .254E-03                                                  
  614 T=  3110. E= -.19657530E+02 F= -.24883707E+02 E0= -.24804179E+02  EK=  .52262E+01 SP=  .00E+00 SK=  .00E+00 mag=      1.000
       N       E                     dE             d eps       ncg     rms          rms(c)                                      
DAV:   1     -.248759950923E+02     .76994E-02    -.87215E-01 11568    .745E+00     .794E-03                                     
RMM:   2     -.248781104967E+02    -.21154E-02    -.21610E-03 11122    .418E-02     .548E-03                                     
RMM:   3     -.248820220235E+02    -.39115E-02    -.43751E-05  7925    .859E-03     .367E-03                                     
RMM:   4     -.248832395622E+02    -.12175E-02    -.46992E-06  5316    .462E-03     .196E-03                                     
RMM:   5     -.248836327101E+02    -.39315E-03    -.31390E-06  5069    .458E-03     .120E-03                                     
RMM:   6     -.248836065861E+02     .26124E-04    -.19390E-07  2515    .269E-03                                                  
  615 T=  3110. E= -.19657529E+02 F= -.24883607E+02 E0= -.24804078E+02  EK=  .52261E+01 SP=  .00E+00 SK=  .00E+00 mag=      1.000
       N       E                     dE             d eps       ncg     rms          rms(c)                                      
DAV:   1     -.248759394105E+02     .76933E-02    -.18851E+00 11664    .775E+00     .811E-03                                     
RMM:   2     -.248781264830E+02    -.21871E-02    -.31739E-03 11158    .457E-02     .562E-03                                     
RMM:   3     -.248816887582E+02    -.35623E-02    -.88468E-05  7397    .967E-03     .330E-03                                     
RMM:   4     -.248827689348E+02    -.10802E-02    -.77203E-06  5129    .497E-03     .251E-03                                     
RMM:   5     -.248834679962E+02    -.69906E-03    -.41425E-06  5243    .486E-03     .639E-04                                     
RMM:   6     -.248834556815E+02     .12315E-04    -.19036E-07  2441    .270E-03                                                  
  616 T=  3110. E= -.19657476E+02 F= -.24883456E+02 E0= -.24803928E+02  EK=  .52260E+01 SP=  .00E+00 SK=  .00E+00 mag=      1.000
       N       E                     dE             d eps       ncg     rms          rms(c)                                      
DAV:   1     -.248760333152E+02     .74347E-02    -.12529E+00 11464    .751E+00     .790E-03                                     
RMM:   2     -.248780960911E+02    -.20628E-02    -.20768E-03 11208    .418E-02     .544E-03                                     
RMM:   3     -.248827480870E+02    -.46520E-02    -.54500E-05  7710    .858E-03     .128E-03                                     
RMM:   4     -.248834558692E+02    -.70778E-03    -.10897E-05  5810    .547E-03     .233E-03                                     
RMM:   5     -.248833638799E+02     .91989E-04    -.93815E-07  3302    .321E-03     .649E-04                                     
RMM:   6     -.248833858823E+02    -.22002E-04    -.11862E-07  2195    .259E-03                                                  
  617 T=  3110. E= -.19657503E+02 F= -.24883386E+02 E0= -.24803857E+02  EK=  .52259E+01 SP=  .00E+00 SK=  .00E+00 mag=      1.000
