       N       E                     dE             d eps       ncg     rms          rms(c)                                      
DAV:   1      .111142421132E+04     .11114E+04    -.62832E+04 16320    .996E+02                                                  
DAV:   2      .170864273974E+02    -.10943E+04    -.10377E+04 16896    .279E+02                                                  
DAV:   3     -.254846759800E+02    -.42571E+02    -.42020E+02 18040    .672E+01                                                  
DAV:   4     -.258596675591E+02    -.37499E+00    -.37446E+00 18064    .605E+00                                                  
DAV:   5     -.258639292460E+02    -.42617E-02    -.42616E-02 18288    .555E-01     .167E+01                                     
RMM:   6     -.243422030739E+02     .15217E+01    -.57696E+00 16320    .813E+00     .107E+01                                     
RMM:   7     -.300938885122E+02    -.57517E+01    -.11968E+01 16368    .705E+00     .868E+00                                     
RMM:   8     -.252591299211E+02     .48348E+01    -.91783E+00 16422    .570E+00     .437E+00                                     
RMM:   9     -.296047638897E+02    -.43456E+01    -.28988E+00 16393    .303E+00     .653E+00                                     
RMM:  10     -.249379834298E+02     .46668E+01    -.18256E+00 16416    .247E+00     .878E-01                                     
RMM:  11     -.249205457646E+02     .17438E-01    -.80600E-02 16419    .742E-01     .234E-01                                     
RMM:  12     -.249186591503E+02     .18866E-02    -.34769E-03 16435    .147E-01     .139E-01                                     
RMM:  13     -.249190543220E+02    -.39517E-03    -.13358E-03 16403    .105E-01     .538E-02                                     
RMM:  14     -.249196628522E+02    -.60853E-03    -.63318E-05 10422    .240E-02     .226E-02                                     
RMM:  15     -.249198462052E+02    -.18335E-03    -.23274E-05  9844    .155E-02     .829E-03                                     
RMM:  16     -.249198516282E+02    -.54230E-05    -.68862E-06  9532    .776E-03                                                  
    1 T=  3033. E= -.19823634E+02 F= -.24919852E+02 E0= -.24839502E+02  EK=  .50962E+01 SP=  .00E+00 SK=  .00E+00 mag=      1.000
       N       E                     dE             d eps       ncg     rms          rms(c)                                      
DAV:   1     -.244645848952E+02     .45526E+00    -.15500E-01 17112    .143E-01     .301E-01                                     
RMM:   2     -.246041465730E+02    -.13956E+00    -.79365E-04 10938    .385E-02     .217E-01                                     
RMM:   3     -.248978004071E+02    -.29365E+00    -.13367E-03 11766    .449E-02     .224E-02                                     
RMM:   4     -.249151418715E+02    -.17341E-01    -.22833E-05 10011    .107E-02     .123E-02                                     
RMM:   5     -.249192633834E+02    -.41215E-02    -.49436E-06  6684    .482E-03     .254E-03                                     
RMM:   6     -.249195712499E+02    -.30787E-03    -.92168E-07  3967    .322E-03     .101E-03                                     
RMM:   7     -.249199860203E+02    -.41477E-03    -.10451E-05  5001    .464E-03     .303E-04                                     
RMM:   8     -.249199826663E+02     .33540E-05    -.52218E-07  2623    .266E-03                                                  
    2 T=  3033. E= -.19823629E+02 F= -.24919983E+02 E0= -.24839631E+02  EK=  .50964E+01 SP=  .00E+00 SK=  .00E+00 mag=      1.000
       N       E                     dE             d eps       ncg     rms          rms(c)                                      
DAV:   1     -.248664510242E+02     .53535E-01    -.40195E-01 12664    .541E+00     .416E-02                                     
RMM:   2     -.248826623961E+02    -.16211E-01    -.10208E-02 11895    .888E-02     .277E-02                                     
RMM:   3     -.249163032384E+02    -.33641E-01    -.32964E-04 11031    .258E-02     .134E-02                                     
RMM:   4     -.249194071277E+02    -.31039E-02    -.29755E-05  8592    .896E-03     .191E-03                                     
RMM:   5     -.249196878454E+02    -.28072E-03    -.14974E-05  5767    .497E-03     .103E-03                                     
RMM:   6     -.249198755545E+02    -.18771E-03    -.18792E-06  3804    .330E-03     .645E-04                                     
RMM:   7     -.249200840965E+02    -.20854E-03    -.26299E-06  4146    .362E-03     .230E-04                                     
RMM:   8     -.249201244073E+02    -.40311E-04    -.10898E-06  2713    .290E-03     .859E-05                                     
RMM:   9     -.249201252741E+02    -.86671E-06    -.10052E-07  2312    .259E-03                                                  
    3 T=  3033. E= -.19823633E+02 F= -.24920125E+02 E0= -.24839772E+02  EK=  .50965E+01 SP=  .00E+00 SK=  .00E+00 mag=      1.000
       N       E                     dE             d eps       ncg     rms          rms(c)                                      
DAV:   1     -.249125336612E+02     .75907E-02    -.21965E+00 13360    .988E+00     .921E-03                                     
RMM:   2     -.249161259017E+02    -.35922E-02    -.26701E-03 12546    .649E-02     .516E-03                                     
RMM:   3     -.249175799956E+02    -.14541E-02    -.57101E-05  9260    .114E-02     .285E-03                                     
RMM:   4     -.249197918948E+02    -.22119E-02    -.95314E-06  6894    .611E-03     .144E-03                                     
RMM:   5     -.249202310074E+02    -.43911E-03    -.10671E-05  6465    .596E-03     .678E-04                                     
RMM:   6     -.249202638210E+02    -.32814E-04    -.42532E-07  3117    .273E-03     .267E-04                                     
RMM:   7     -.249202659064E+02    -.20855E-05    -.11081E-07  2516    .240E-03                                                  
    4 T=  3033. E= -.19823634E+02 F= -.24920266E+02 E0= -.24839910E+02  EK=  .50966E+01 SP=  .00E+00 SK=  .00E+00 mag=      1.000
       N       E                     dE             d eps       ncg     rms          rms(c)                                      
DAV:   1     -.249127303339E+02     .75335E-02    -.27650E+00 11920    .861E+00     .809E-03                                     
RMM:   2     -.249192049075E+02    -.64746E-02    -.24777E-03 11048    .439E-02     .373E-03                                     
RMM:   3     -.249195148272E+02    -.30992E-03    -.50069E-05  8202    .868E-03     .321E-03                                     
RMM:   4     -.249198158142E+02    -.30099E-03    -.53149E-06  4912    .446E-03     .180E-03                                     
RMM:   5     -.249203120932E+02    -.49628E-03    -.72930E-06  7555    .547E-03     .925E-04                                     
RMM:   6     -.249203356392E+02    -.23546E-04    -.13974E-06  3252    .286E-03                                                  
    5 T=  3033. E= -.19823563E+02 F= -.24920336E+02 E0= -.24839979E+02  EK=  .50968E+01 SP=  .00E+00 SK=  .00E+00 mag=      1.000
       N       E                     dE             d eps       ncg     rms          rms(c)                                      
DAV:   1     -.249041872510E+02     .16125E-01    -.26789E+00 11976    .886E+00     .887E-03                                     
RMM:   2     -.249191858660E+02    -.14999E-01    -.84792E-02 11268    .173E-01     .415E-03                                     
RMM:   3     -.249199235034E+02    -.73764E-03    -.31194E-03 10021    .275E-02     .157E-03                                     
RMM:   4     -.249201966130E+02    -.27311E-03    -.23576E-04  4533    .873E-03     .135E-03                                     
RMM:   5     -.249203654128E+02    -.16880E-03    -.16555E-05  3868    .402E-03     .899E-04                                     
RMM:   6     -.249204641762E+02    -.98763E-04    -.37096E-06  3902    .329E-03     .594E-04                                     
RMM:   7     -.249204928876E+02    -.28711E-04    -.48053E-07  3047    .281E-03                                                  
    6 T=  3033. E= -.19823578E+02 F= -.24920493E+02 E0= -.24840134E+02  EK=  .50969E+01 SP=  .00E+00 SK=  .00E+00 mag=      1.000
       N       E                     dE             d eps       ncg     rms          rms(c)                                      
DAV:   1     -.249121993377E+02     .82648E-02    -.21040E+00 12272    .915E+00     .815E-03                                     
RMM:   2     -.249197277086E+02    -.75284E-02    -.93815E-03 11649    .806E-02     .295E-03                                     
RMM:   3     -.249199874647E+02    -.25976E-03    -.22198E-04  9077    .150E-02     .169E-03                                     
RMM:   4     -.249202553821E+02    -.26792E-03    -.19027E-05  5466    .590E-03     .956E-04                                     
RMM:   5     -.249204779597E+02    -.22258E-03    -.29708E-06  4303    .366E-03     .560E-04                                     
RMM:   6     -.249206396641E+02    -.16170E-03    -.12002E-06  4012    .323E-03     .199E-04                                     
RMM:   7     -.249206904891E+02    -.50825E-04    -.10892E-06  3611    .313E-03     .101E-04                                     
RMM:   8     -.249206990297E+02    -.85405E-05    -.25299E-07  2351    .262E-03                                                  
    7 T=  3033. E= -.19823639E+02 F= -.24920699E+02 E0= -.24840338E+02  EK=  .50971E+01 SP=  .00E+00 SK=  .00E+00 mag=      1.000
       N       E                     dE             d eps       ncg     rms          rms(c)                                      
DAV:   1     -.249124343119E+02     .82562E-02    -.16006E+00 12152    .868E+00     .807E-03                                     
RMM:   2     -.249195515580E+02    -.71172E-02    -.98295E-03 11528    .811E-02     .325E-03                                     
RMM:   3     -.249199934660E+02    -.44191E-03    -.23648E-04  9310    .143E-02     .205E-03                                     
RMM:   4     -.249204127548E+02    -.41929E-03    -.26566E-05  6513    .679E-03     .944E-04                                     
RMM:   5     -.249206847863E+02    -.27203E-03    -.47197E-06  5192    .450E-03     .301E-04                                     
RMM:   6     -.249207787214E+02    -.93935E-04    -.75594E-07  3247    .304E-03     .158E-04                                     
RMM:   7     -.249208399610E+02    -.61240E-04    -.56362E-07  2915    .287E-03     .547E-05                                     
RMM:   8     -.249208448300E+02    -.48690E-05    -.29487E-07  2399    .266E-03                                                  
    8 T=  3033. E= -.19823637E+02 F= -.24920845E+02 E0= -.24840482E+02  EK=  .50972E+01 SP=  .00E+00 SK=  .00E+00 mag=      1.000
       N       E                     dE             d eps       ncg     rms          rms(c)                                      
DAV:   1     -.249131446349E+02     .76953E-02    -.19171E+00 11688    .839E+00     .794E-03                                     
RMM:   2     -.249198448333E+02    -.67002E-02    -.36669E-03 11289    .598E-02     .320E-03                                     
RMM:   3     -.249203718728E+02    -.52704E-03    -.64589E-05  8305    .105E-02     .210E-03                                     
RMM:   4     -.249208825613E+02    -.51069E-03    -.10823E-05  6894    .608E-03     .844E-04                                     
RMM:   5     -.249209753487E+02    -.92787E-04    -.32585E-06  4837    .395E-03     .319E-04                                     
RMM:   6     -.249209784463E+02    -.30976E-05    -.18413E-07  2581    .248E-03                                                  
    9 T=  3033. E= -.19823619E+02 F= -.24920978E+02 E0= -.24840614E+02  EK=  .50974E+01 SP=  .00E+00 SK=  .00E+00 mag=      1.000
       N       E                     dE             d eps       ncg     rms          rms(c)                                      
DAV:   1     -.249134581331E+02     .75172E-02    -.13969E+00 11632    .905E+00     .787E-03                                     
RMM:   2     -.249204192660E+02    -.69611E-02    -.21469E-03 11108    .419E-02     .289E-03                                     
RMM:   3     -.249208423781E+02    -.42311E-03    -.45928E-05  8048    .876E-03     .193E-03                                     
RMM:   4     -.249209743580E+02    -.13198E-03    -.46370E-06  5498    .468E-03     .108E-03                                     
RMM:   5     -.249210904549E+02    -.11610E-03    -.14652E-06  4620    .354E-03     .330E-04                                     
RMM:   6     -.249211157546E+02    -.25300E-04    -.31420E-07  2978    .265E-03                                                  
   10 T=  3034. E= -.19823603E+02 F= -.24921116E+02 E0= -.24840749E+02  EK=  .50975E+01 SP=  .00E+00 SK=  .00E+00 mag=      1.000
       N       E                     dE             d eps       ncg     rms          rms(c)                                      
DAV:   1     -.249109640112E+02     .10126E-01    -.92772E-01 11680    .862E+00     .826E-03                                     
RMM:   2     -.249205620365E+02    -.95980E-02    -.27502E-02 11371    .967E-02     .265E-03                                     
RMM:   3     -.249210142172E+02    -.45218E-03    -.42832E-04  8559    .142E-02     .134E-03                                     
RMM:   4     -.249211096404E+02    -.95423E-04    -.32386E-05  4508    .536E-03     .885E-04                                     
RMM:   5     -.249212683360E+02    -.15870E-03    -.45528E-06  4477    .388E-03     .254E-04                                     
RMM:   6     -.249212966170E+02    -.28281E-04    -.99789E-07  3480    .319E-03                                                  
   11 T=  3034. E= -.19823627E+02 F= -.24921297E+02 E0= -.24840928E+02  EK=  .50977E+01 SP=  .00E+00 SK=  .00E+00 mag=      1.000
       N       E                     dE             d eps       ncg     rms          rms(c)                                      
DAV:   1     -.249128459055E+02     .84224E-02    -.33054E+00 11840    .946E+00     .799E-03                                     
RMM:   2     -.249206421789E+02    -.77963E-02    -.11914E-02 11125    .750E-02     .203E-03                                     
RMM:   3     -.249212398839E+02    -.59770E-03    -.23314E-04  7569    .127E-02     .109E-03                                     
RMM:   4     -.249213683444E+02    -.12846E-03    -.20228E-05  5014    .579E-03     .534E-04                                     
RMM:   5     -.249214323427E+02    -.63998E-04    -.21801E-06  4145    .375E-03     .192E-04                                     
RMM:   6     -.249214532934E+02    -.20951E-04    -.58336E-07  3320    .317E-03                                                  
   12 T=  3034. E= -.19823626E+02 F= -.24921453E+02 E0= -.24841083E+02  EK=  .50978E+01 SP=  .00E+00 SK=  .00E+00 mag=      1.000
       N       E                     dE             d eps       ncg     rms          rms(c)                                      
DAV:   1     -.249117467429E+02     .96856E-02    -.15283E+00 12096    .107E+01     .806E-03                                     
RMM:   2     -.249207855841E+02    -.90388E-02    -.23628E-02 11668    .129E-01     .208E-03                                     
RMM:   3     -.249214163433E+02    -.63076E-03    -.41151E-04  8282    .179E-02     .115E-03                                     
RMM:   4     -.249214902507E+02    -.73907E-04    -.46422E-05  5831    .769E-03     .723E-04                                     
RMM:   5     -.249215182950E+02    -.28044E-04    -.45065E-06  3753    .375E-03                                                  
   13 T=  3034. E= -.19823532E+02 F= -.24921518E+02 E0= -.24841146E+02  EK=  .50980E+01 SP=  .00E+00 SK=  .00E+00 mag=      1.000
       N       E                     dE             d eps       ncg     rms          rms(c)                                      
DAV:   1     -.249123086198E+02     .91816E-02    -.13470E+00 12176    .963E+00     .806E-03                                     
RMM:   2     -.249208562660E+02    -.85476E-02    -.19542E-02 11588    .122E-01     .264E-03                                     
RMM:   3     -.249213961297E+02    -.53986E-03    -.44688E-04  8335    .174E-02     .139E-03                                     
RMM:   4     -.249215927155E+02    -.19659E-03    -.26345E-05  4765    .628E-03     .760E-04                                     
RMM:   5     -.249217513562E+02    -.15864E-03    -.54899E-06  5141    .490E-03     .340E-04                                     
RMM:   6     -.249217672465E+02    -.15890E-04    -.98361E-07  3431    .342E-03                                                  
   14 T=  3034. E= -.19823621E+02 F= -.24921767E+02 E0= -.24841394E+02  EK=  .50981E+01 SP=  .00E+00 SK=  .00E+00 mag=      1.000
       N       E                     dE             d eps       ncg     rms          rms(c)                                      
DAV:   1     -.249118441852E+02     .99072E-02    -.19642E+00 11832    .792E+00     .838E-03                                     
RMM:   2     -.249210130853E+02    -.91689E-02    -.25718E-02 11217    .868E-02     .277E-03                                     
RMM:   3     -.249216407144E+02    -.62763E-03    -.62570E-04  8257    .149E-02     .150E-03                                     
RMM:   4     -.249217664607E+02    -.12575E-03    -.78931E-05  4853    .635E-03     .105E-03                                     
RMM:   5     -.249218753865E+02    -.10893E-03    -.53645E-06  4146    .390E-03     .463E-04                                     
RMM:   6     -.249219118703E+02    -.36484E-04    -.10701E-06  3400    .327E-03     .252E-04                                     
RMM:   7     -.249219274652E+02    -.15595E-04    -.68861E-07  3137    .298E-03                                                  
   15 T=  3034. E= -.19823618E+02 F= -.24921927E+02 E0= -.24841551E+02  EK=  .50983E+01 SP=  .00E+00 SK=  .00E+00 mag=      1.000
       N       E                     dE             d eps       ncg     rms          rms(c)                                      
DAV:   1     -.249118421825E+02     .10070E-01    -.22347E+00 12464    .924E+00     .844E-03                                     
RMM:   2     -.249212744208E+02    -.94322E-02    -.27436E-02 11533    .128E-01     .319E-03                                     
RMM:   3     -.249217598088E+02    -.48539E-03    -.44110E-04  8958    .180E-02     .150E-03                                     
RMM:   4     -.249219217463E+02    -.16194E-03    -.35934E-05  5124    .693E-03     .106E-03                                     
RMM:   5     -.249220564762E+02    -.13473E-03    -.49687E-06  4947    .430E-03     .384E-04                                     
RMM:   6     -.249220916227E+02    -.35146E-04    -.20149E-06  4118    .355E-03     .133E-04                                     
RMM:   7     -.249221005342E+02    -.89115E-05    -.73895E-07  2974    .290E-03                                                  
   16 T=  3034. E= -.19823625E+02 F= -.24922101E+02 E0= -.24841723E+02  EK=  .50985E+01 SP=  .00E+00 SK=  .00E+00 mag=      1.000
       N       E                     dE             d eps       ncg     rms          rms(c)                                      
DAV:   1     -.249079965040E+02     .14095E-01    -.10229E+00 12112    .932E+00     .932E-03                                     
RMM:   2     -.249212136710E+02    -.13217E-01    -.66372E-02 11454    .199E-01     .290E-03                                     
RMM:   3     -.249219210548E+02    -.70738E-03    -.14100E-03  8258    .269E-02     .194E-03                                     
RMM:   4     -.249219217680E+02    -.71320E-06    -.13915E-04  5172    .982E-03                                                  
   17 T=  3034. E= -.19823279E+02 F= -.24921922E+02 E0= -.24841543E+02  EK=  .50986E+01 SP=  .00E+00 SK=  .00E+00 mag=      1.000
       N       E                     dE             d eps       ncg     rms          rms(c)                                      
DAV:   1     -.249144351539E+02     .74859E-02    -.23917E+00 11624    .890E+00     .831E-03                                     
RMM:   2     -.249209371822E+02    -.65020E-02    -.12937E-03 11367    .451E-02     .348E-03                                     
RMM:   3     -.249216842428E+02    -.74706E-03    -.23741E-05  7843    .868E-03     .178E-03                                     
RMM:   4     -.249221842732E+02    -.50003E-03    -.50456E-06  5693    .530E-03     .860E-04                                     
RMM:   5     -.249223259695E+02    -.14170E-03    -.30960E-06  5694    .473E-03     .374E-04                                     
RMM:   6     -.249224095721E+02    -.83603E-04    -.35700E-06  4472    .411E-03     .180E-04                                     
RMM:   7     -.249224340838E+02    -.24512E-04    -.18323E-06  3655    .339E-03                                                  
   18 T=  3034. E= -.19823621E+02 F= -.24922434E+02 E0= -.24842053E+02  EK=  .50988E+01 SP=  .00E+00 SK=  .00E+00 mag=      1.000
       N       E                     dE             d eps       ncg     rms          rms(c)                                      
DAV:   1     -.249152488229E+02     .71607E-02    -.13764E+00 12432    .821E+00     .772E-03                                     
RMM:   2     -.249218474009E+02    -.65986E-02    -.37174E-03 11540    .663E-02     .265E-03                                     
RMM:   3     -.249222036414E+02    -.35624E-03    -.69440E-05  8425    .116E-02     .223E-03                                     
RMM:   4     -.249223704565E+02    -.16682E-03    -.72634E-06  5177    .510E-03     .135E-03                                     
RMM:   5     -.249225448295E+02    -.17437E-03    -.19289E-06  4931    .413E-03     .546E-04                                     
RMM:   6     -.249225455948E+02    -.76531E-06    -.29297E-06  3992    .392E-03                                                  
   19 T=  3034. E= -.19823561E+02 F= -.24922546E+02 E0= -.24842162E+02  EK=  .50990E+01 SP=  .00E+00 SK=  .00E+00 mag=      1.000
       N       E                     dE             d eps       ncg     rms          rms(c)                                      
DAV:   1     -.249148764980E+02     .76683E-02    -.30574E+00 11832    .925E+00     .802E-03                                     
RMM:   2     -.249219842216E+02    -.71077E-02    -.16390E-03 11218    .381E-02     .269E-03                                     
RMM:   3     -.249223232217E+02    -.33900E-03    -.38777E-05  7834    .788E-03     .156E-03                                     
RMM:   4     -.249226028709E+02    -.27965E-03    -.45373E-06  5561    .470E-03     .651E-04                                     
RMM:   5     -.249227417604E+02    -.13889E-03    -.48299E-06  5169    .453E-03     .325E-04                                     
RMM:   6     -.249227697770E+02    -.28017E-04    -.20825E-06  3813    .356E-03                                                  
   20 T=  3035. E= -.19823613E+02 F= -.24922770E+02 E0= -.24842385E+02  EK=  .50992E+01 SP=  .00E+00 SK=  .00E+00 mag=      1.000
       N       E                     dE             d eps       ncg     rms          rms(c)                                      
DAV:   1     -.249145745212E+02     .81672E-02    -.19292E+00 12592    .983E+00     .785E-03                                     
RMM:   2     -.249221877858E+02    -.76133E-02    -.10140E-02 12055    .929E-02     .310E-03                                     
RMM:   3     -.249227682212E+02    -.58044E-03    -.19854E-04  8593    .122E-02     .170E-03                                     
RMM:   4     -.249228892692E+02    -.12105E-03    -.27821E-05  6426    .639E-03     .746E-04                                     
RMM:   5     -.249229198542E+02    -.30585E-04    -.23300E-06  4036    .359E-03     .437E-04                                     
RMM:   6     -.249229372901E+02    -.17436E-04    -.15457E-06  4380    .360E-03                                                  
   21 T=  3035. E= -.19823606E+02 F= -.24922937E+02 E0= -.24842551E+02  EK=  .50993E+01 SP=  .00E+00 SK=  .00E+00 mag=      1.000
       N       E                     dE             d eps       ncg     rms          rms(c)                                      
DAV:   1     -.248919529513E+02     .30967E-01    -.34346E+00 12144    .930E+00     .103E-02                                     
RMM:   2     -.249234018113E+02    -.31449E-01    -.24730E-01 11648    .256E-01     .353E-03                                     
RMM:   3     -.249228865326E+02     .51528E-03    -.40995E-03  9921    .354E-02     .208E-03                                     
RMM:   4     -.249229827049E+02    -.96172E-04    -.26994E-04  5553    .105E-02     .162E-03                                     
RMM:   5     -.249229507886E+02     .31916E-04    -.16688E-05  4332    .458E-03     .123E-03                                     
RMM:   6     -.249229868847E+02    -.36096E-04    -.16608E-06  3376    .325E-03     .821E-04                                     
RMM:   7     -.249230973828E+02    -.11050E-03    -.27603E-06  4575    .424E-03     .274E-04                                     
RMM:   8     -.249231181081E+02    -.20725E-04    -.15660E-06  3655    .352E-03                                                  
   22 T=  3035. E= -.19823611E+02 F= -.24923118E+02 E0= -.24842729E+02  EK=  .50995E+01 SP=  .00E+00 SK=  .00E+00 mag=      1.000
       N       E                     dE             d eps       ncg     rms          rms(c)                                      
DAV:   1     -.249144595088E+02     .86379E-02    -.75604E-01 12352    .852E+00     .817E-03                                     
RMM:   2     -.249224861833E+02    -.80267E-02    -.14117E-02 11484    .101E-01     .306E-03                                     
RMM:   3     -.249229871532E+02    -.50097E-03    -.15378E-04  8726    .148E-02     .140E-03                                     
RMM:   4     -.249231926923E+02    -.20554E-03    -.88642E-06  5380    .575E-03     .104E-03                                     
RMM:   5     -.249232857182E+02    -.93026E-04    -.69195E-06  5655    .517E-03     .351E-04                                     
RMM:   6     -.249232885548E+02    -.28366E-05    -.75844E-07  3363    .320E-03                                                  
   23 T=  3035. E= -.19823604E+02 F= -.24923289E+02 E0= -.24842898E+02  EK=  .50997E+01 SP=  .00E+00 SK=  .00E+00 mag=      1.000
       N       E                     dE             d eps       ncg     rms          rms(c)                                      
DAV:   1     -.249158985421E+02     .73872E-02    -.23720E+00 11784    .940E+00     .795E-03                                     
RMM:   2     -.249227453479E+02    -.68468E-02    -.15396E-03 11793    .469E-02     .262E-03                                     
RMM:   3     -.249229467042E+02    -.20136E-03    -.39388E-05  7687    .989E-03     .205E-03                                     
RMM:   4     -.249231106132E+02    -.16391E-03    -.39319E-06  5441    .468E-03     .111E-03                                     
RMM:   5     -.249234162002E+02    -.30559E-03    -.38925E-06  5461    .487E-03     .406E-04                                     
RMM:   6     -.249234567634E+02    -.40563E-04    -.21039E-06  4529    .430E-03     .262E-04                                     
RMM:   7     -.249234712373E+02    -.14474E-04    -.13816E-06  3651    .344E-03                                                  
   24 T=  3035. E= -.19823609E+02 F= -.24923471E+02 E0= -.24843079E+02  EK=  .50999E+01 SP=  .00E+00 SK=  .00E+00 mag=      1.000
       N       E                     dE             d eps       ncg     rms          rms(c)                                      
DAV:   1     -.249159584555E+02     .74983E-02    -.78182E-01 12208    .964E+00     .805E-03                                     
RMM:   2     -.249229413973E+02    -.69829E-02    -.27740E-03 11932    .519E-02     .271E-03                                     
RMM:   3     -.249233320144E+02    -.39062E-03    -.51737E-05  7763    .101E-02     .148E-03                                     
RMM:   4     -.249235361130E+02    -.20410E-03    -.54019E-06  5627    .502E-03     .647E-04                                     
RMM:   5     -.249236416267E+02    -.10551E-03    -.47143E-06  5839    .537E-03     .234E-04                                     
RMM:   6     -.249236408117E+02     .81497E-06    -.32241E-07  2521    .274E-03                                                  
   25 T=  3035. E= -.19823598E+02 F= -.24923641E+02 E0= -.24843247E+02  EK=  .51000E+01 SP=  .00E+00 SK=  .00E+00 mag=      1.000
       N       E                     dE             d eps       ncg     rms          rms(c)                                      
DAV:   1     -.249162013810E+02     .74402E-02    -.10708E+00 11408    .107E+01     .787E-03                                     
RMM:   2     -.249231038808E+02    -.69025E-02    -.18174E-03 11669    .467E-02     .235E-03                                     
RMM:   3     -.249235902411E+02    -.48636E-03    -.47553E-05  7666    .927E-03     .158E-03                                     
RMM:   4     -.249237283636E+02    -.13812E-03    -.46830E-06  4924    .469E-03     .104E-03                                     
RMM:   5     -.249237970954E+02    -.68732E-04    -.24771E-06  5076    .429E-03     .387E-04                                     
RMM:   6     -.249238291964E+02    -.32101E-04    -.35288E-06  4372    .427E-03     .216E-04                                     
RMM:   7     -.249238313829E+02    -.21865E-05    -.43318E-07  2626    .292E-03                                                  
   26 T=  3035. E= -.19823607E+02 F= -.24923831E+02 E0= -.24843435E+02  EK=  .51002E+01 SP=  .00E+00 SK=  .00E+00 mag=      1.000
       N       E                     dE             d eps       ncg     rms          rms(c)                                      
DAV:   1     -.249133675305E+02     .10462E-01    -.25813E+00 12864    .112E+01     .868E-03                                     
RMM:   2     -.249232690306E+02    -.99015E-02    -.32269E-02 12062    .160E-01     .312E-03                                     
RMM:   3     -.249237507239E+02    -.48169E-03    -.40193E-04  8885    .198E-02     .134E-03                                     
RMM:   4     -.249239095668E+02    -.15884E-03    -.24723E-05  5194    .676E-03     .876E-04                                     
RMM:   5     -.249240094370E+02    -.99870E-04    -.65774E-06  5454    .552E-03     .322E-04                                     
RMM:   6     -.249240149299E+02    -.54929E-05    -.11768E-06  3691    .336E-03                                                  
   27 T=  3035. E= -.19823607E+02 F= -.24924015E+02 E0= -.24843617E+02  EK=  .51004E+01 SP=  .00E+00 SK=  .00E+00 mag=      1.000
       N       E                     dE             d eps       ncg     rms          rms(c)                                      
DAV:   1     -.249160336573E+02     .79758E-02    -.12721E+00 12544    .937E+00     .782E-03                                     
RMM:   2     -.249234332338E+02    -.73996E-02    -.75871E-03 11591    .825E-02     .227E-03                                     
RMM:   3     -.249240242988E+02    -.59107E-03    -.10305E-04  7844    .121E-02     .128E-03                                     
RMM:   4     -.249241118076E+02    -.87509E-04    -.10654E-05  5389    .558E-03     .628E-04                                     
RMM:   5     -.249241638099E+02    -.52002E-04    -.28507E-06  4889    .435E-03     .267E-04                                     
RMM:   6     -.249241914237E+02    -.27614E-04    -.24043E-06  4076    .382E-03                                                  
   28 T=  3035. E= -.19823599E+02 F= -.24924191E+02 E0= -.24843792E+02  EK=  .51006E+01 SP=  .00E+00 SK=  .00E+00 mag=      1.000
       N       E                     dE             d eps       ncg     rms          rms(c)                                      
DAV:   1     -.249147149865E+02     .94488E-02    -.15282E+00 12592    .878E+00     .824E-03                                     
RMM:   2     -.249236482784E+02    -.89333E-02    -.22155E-02 11444    .115E-01     .208E-03                                     
RMM:   3     -.249242243352E+02    -.57606E-03    -.24106E-04  8249    .149E-02     .115E-03                                     
RMM:   4     -.249243062028E+02    -.81868E-04    -.15213E-05  5175    .587E-03     .813E-04                                     
RMM:   5     -.249243611526E+02    -.54950E-04    -.69981E-06  5206    .475E-03     .335E-04                                     
RMM:   6     -.249243761223E+02    -.14970E-04    -.19495E-06  4005    .369E-03                                                  
   29 T=  3035. E= -.19823598E+02 F= -.24924376E+02 E0= -.24843974E+02  EK=  .51008E+01 SP=  .00E+00 SK=  .00E+00 mag=      1.000
       N       E                     dE             d eps       ncg     rms          rms(c)                                      
DAV:   1     -.249168257344E+02     .75354E-02    -.23171E+00 12400    .903E+00     .783E-03                                     
RMM:   2     -.249237540983E+02    -.69284E-02    -.36411E-03 11281    .504E-02     .237E-03                                     
RMM:   3     -.249242215297E+02    -.46743E-03    -.41755E-05  7441    .872E-03     .110E-03                                     
RMM:   4     -.249244858376E+02    -.26431E-03    -.56168E-06  5335    .525E-03     .435E-04                                     
RMM:   5     -.249245471624E+02    -.61325E-04    -.56867E-06  5407    .559E-03     .202E-04                                     
RMM:   6     -.249245579950E+02    -.10833E-04    -.80257E-07  2859    .312E-03                                                  
   30 T=  3036. E= -.19823594E+02 F= -.24924558E+02 E0= -.24844154E+02  EK=  .51010E+01 SP=  .00E+00 SK=  .00E+00 mag=      1.000
       N       E                     dE             d eps       ncg     rms          rms(c)                                      
DAV:   1     -.249051903500E+02     .19357E-01    -.16876E+00 11960    .849E+00     .109E-02                                     
RMM:   2     -.249240851171E+02    -.18895E-01    -.12089E-01 11558    .163E-01     .311E-03                                     
RMM:   3     -.249246251167E+02    -.54000E-03    -.21873E-03  8920    .237E-02     .216E-03                                     
RMM:   4     -.249246929321E+02    -.67815E-04    -.30343E-04  5110    .873E-03     .160E-03                                     
RMM:   5     -.249247216067E+02    -.28675E-04    -.16240E-05  3808    .417E-03                                                  
   31 T=  3036. E= -.19823569E+02 F= -.24924722E+02 E0= -.24844316E+02  EK=  .51012E+01 SP=  .00E+00 SK=  .00E+00 mag=      1.000
       N       E                     dE             d eps       ncg     rms          rms(c)                                      
DAV:   1     -.249172271918E+02     .74657E-02    -.18593E+00 12720    .852E+00     .793E-03                                     
RMM:   2     -.249239474351E+02    -.67202E-02    -.32733E-03 11640    .564E-02     .373E-03                                     
RMM:   3     -.249242801814E+02    -.33275E-03    -.62368E-05  8469    .107E-02     .220E-03                                     
RMM:   4     -.249248267282E+02    -.54655E-03    -.10827E-05  6383    .657E-03     .107E-03                                     
RMM:   5     -.249249000414E+02    -.73313E-04    -.57975E-06  5617    .568E-03     .526E-04                                     
RMM:   6     -.249249260783E+02    -.26037E-04    -.21755E-06  3707    .351E-03                                                  
   32 T=  3036. E= -.19823585E+02 F= -.24924926E+02 E0= -.24844519E+02  EK=  .51013E+01 SP=  .00E+00 SK=  .00E+00 mag=      1.000
       N       E                     dE             d eps       ncg     rms          rms(c)                                      
DAV:   1     -.249173902350E+02     .75098E-02    -.34096E+00 12440    .826E+00     .788E-03                                     
RMM:   2     -.249243428389E+02    -.69526E-02    -.39949E-03 11675    .572E-02     .361E-03                                     
RMM:   3     -.249248041311E+02    -.46129E-03    -.61740E-05  8677    .113E-02     .297E-03                                     
RMM:   4     -.249249471037E+02    -.14297E-03    -.75691E-06  5250    .482E-03     .198E-03                                     
RMM:   5     -.249250330276E+02    -.85924E-04    -.20493E-06  4562    .381E-03     .962E-04                                     
RMM:   6     -.249250858601E+02    -.52833E-04    -.16627E-06  4121    .366E-03     .508E-04                                     
RMM:   7     -.249251051104E+02    -.19250E-04    -.74393E-07  3100    .302E-03                                                  
   33 T=  3036. E= -.19823576E+02 F= -.24925105E+02 E0= -.24844696E+02  EK=  .51015E+01 SP=  .00E+00 SK=  .00E+00 mag=       .999
       N       E                     dE             d eps       ncg     rms          rms(c)                                      
DAV:   1     -.249153958233E+02     .96900E-02    -.67677E-01 13520    .879E+00     .811E-03                                     
RMM:   2     -.249245897767E+02    -.91940E-02    -.25067E-02 11711    .134E-01     .416E-03                                     
RMM:   3     -.249249742433E+02    -.38447E-03    -.31882E-04  9478    .169E-02     .218E-03                                     
RMM:   4     -.249251945846E+02    -.22034E-03    -.33642E-05  6119    .736E-03     .119E-03                                     
RMM:   5     -.249252922843E+02    -.97700E-04    -.10664E-05  6077    .613E-03     .468E-04                                     
RMM:   6     -.249253040541E+02    -.11770E-04    -.11681E-06  3405    .317E-03                                                  
   34 T=  3036. E= -.19823585E+02 F= -.24925304E+02 E0= -.24844893E+02  EK=  .51017E+01 SP=  .00E+00 SK=  .00E+00 mag=       .999
       N       E                     dE             d eps       ncg     rms          rms(c)                                      
DAV:   1     -.249179002448E+02     .73920E-02    -.30794E+00 12072    .916E+00     .777E-03                                     
RMM:   2     -.249247816049E+02    -.68814E-02    -.31847E-03 11567    .503E-02     .302E-03                                     
RMM:   3     -.249251706316E+02    -.38903E-03    -.73735E-05  8374    .101E-02     .175E-03                                     
RMM:   4     -.249253959753E+02    -.22534E-03    -.11459E-05  6443    .608E-03     .630E-04                                     
RMM:   5     -.249254698184E+02    -.73843E-04    -.62021E-06  5180    .495E-03     .354E-04                                     
RMM:   6     -.249254849200E+02    -.15102E-04    -.24650E-06  4140    .387E-03                                                  
   35 T=  3036. E= -.19823575E+02 F= -.24925485E+02 E0= -.24845072E+02  EK=  .51019E+01 SP=  .00E+00 SK=  .00E+00 mag=       .999
       N       E                     dE             d eps       ncg     rms          rms(c)                                      
DAV:   1     -.249171232148E+02     .83466E-02    -.28248E+00 12560    .103E+01     .801E-03                                     
RMM:   2     -.249249680197E+02    -.78448E-02    -.11227E-02 12181    .890E-02     .338E-03                                     
RMM:   3     -.249254198866E+02    -.45187E-03    -.29634E-04  9495    .167E-02     .127E-03                                     
RMM:   4     -.249255242070E+02    -.10432E-03    -.33002E-05  5241    .620E-03     .844E-04                                     
RMM:   5     -.249256558338E+02    -.13163E-03    -.17246E-05  5761    .605E-03     .319E-04                                     
RMM:   6     -.249256806511E+02    -.24817E-04    -.68270E-06  4543    .457E-03                                                  
   36 T=  3036. E= -.19823580E+02 F= -.24925681E+02 E0= -.24845266E+02  EK=  .51021E+01 SP=  .00E+00 SK=  .00E+00 mag=       .999
       N       E                     dE             d eps       ncg     rms          rms(c)                                      
DAV:   1     -.249183495433E+02     .73063E-02    -.27156E+00 13024    .966E+00     .786E-03                                     
RMM:   2     -.249251263108E+02    -.67768E-02    -.23814E-03 12271    .610E-02     .222E-03                                     
RMM:   3     -.249256314121E+02    -.50510E-03    -.40832E-05  8284    .113E-02     .128E-03                                     
RMM:   4     -.249258026668E+02    -.17125E-03    -.65928E-06  5580    .559E-03     .680E-04                                     
RMM:   5     -.249258658811E+02    -.63214E-04    -.69091E-06  5570    .586E-03     .210E-04                                     
RMM:   6     -.249258775475E+02    -.11666E-04    -.17056E-06  3600    .364E-03                                                  
   37 T=  3036. E= -.19823586E+02 F= -.24925878E+02 E0= -.24845461E+02  EK=  .51023E+01 SP=  .00E+00 SK=  .00E+00 mag=       .999
       N       E                     dE             d eps       ncg     rms          rms(c)                                      
DAV:   1     -.249187663591E+02     .70995E-02    -.19449E+00 12656    .923E+00     .776E-03                                     
RMM:   2     -.249254450121E+02    -.66787E-02    -.72368E-04 11628    .386E-02     .231E-03                                     
RMM:   3     -.249258833587E+02    -.43835E-03    -.23789E-05  8371    .102E-02     .111E-03                                     
RMM:   4     -.249259871876E+02    -.10383E-03    -.33193E-06  5221    .465E-03     .599E-04                                     
RMM:   5     -.249260519831E+02    -.64795E-04    -.85231E-06  5302    .546E-03     .259E-04                                     
RMM:   6     -.249260639788E+02    -.11996E-04    -.24238E-06  3783    .379E-03                                                  
   38 T=  3036. E= -.19823582E+02 F= -.24926064E+02 E0= -.24845646E+02  EK=  .51025E+01 SP=  .00E+00 SK=  .00E+00 mag=       .999
       N       E                     dE             d eps       ncg     rms          rms(c)                                      
DAV:   1     -.249182821115E+02     .77699E-02    -.31028E+00 13056    .967E+00     .783E-03                                     
RMM:   2     -.249255725851E+02    -.72905E-02    -.64278E-03 11883    .821E-02     .209E-03                                     
RMM:   3     -.249260174732E+02    -.44489E-03    -.10689E-04  8266    .139E-02     .993E-04                                     
RMM:   4     -.249261371673E+02    -.11969E-03    -.11227E-05  5549    .593E-03     .610E-04                                     
RMM:   5     -.249262311852E+02    -.94018E-04    -.15887E-05  5848    .662E-03     .231E-04                                     
RMM:   6     -.249262472216E+02    -.16036E-04    -.43477E-06  4070    .427E-03                                                  
   39 T=  3037. E= -.19823575E+02 F= -.24926247E+02 E0= -.24845827E+02  EK=  .51027E+01 SP=  .00E+00 SK=  .00E+00 mag=       .999
       N       E                     dE             d eps       ncg     rms          rms(c)                                      
DAV:   1     -.249185353385E+02     .76958E-02    -.19753E+00 13608    .110E+01     .782E-03                                     
RMM:   2     -.249257868217E+02    -.72515E-02    -.64353E-03 12364    .986E-02     .174E-03                                     
RMM:   3     -.249263148604E+02    -.52804E-03    -.11789E-04  8862    .148E-02     .975E-04                                     
RMM:   4     -.249263821847E+02    -.67324E-04    -.10836E-05  5557    .615E-03     .624E-04                                     
RMM:   5     -.249264345096E+02    -.52325E-04    -.65219E-06  5143    .546E-03     .271E-04                                     
RMM:   6     -.249264447573E+02    -.10248E-04    -.24366E-06  3895    .398E-03                                                  
   40 T=  3037. E= -.19823582E+02 F= -.24926445E+02 E0= -.24846023E+02  EK=  .51029E+01 SP=  .00E+00 SK=  .00E+00 mag=       .999
       N       E                     dE             d eps       ncg     rms          rms(c)                                      
DAV:   1     -.249184087202E+02     .80258E-02    -.26229E+00 13072    .104E+01     .813E-03                                     
RMM:   2     -.249261105915E+02    -.77019E-02    -.10716E-02 12093    .783E-02     .223E-03                                     
RMM:   3     -.249265566980E+02    -.44611E-03    -.14224E-04  8799    .132E-02     .106E-03                                     
RMM:   4     -.249265925227E+02    -.35825E-04    -.85749E-06  4772    .513E-03     .719E-04                                     
RMM:   5     -.249266254026E+02    -.32880E-04    -.47339E-06  4813    .474E-03     .288E-04                                     
RMM:   6     -.249266346260E+02    -.92234E-05    -.40798E-06  4397    .442E-03                                                  
   41 T=  3037. E= -.19823582E+02 F= -.24926635E+02 E0= -.24846211E+02  EK=  .51031E+01 SP=  .00E+00 SK=  .00E+00 mag=       .999
       N       E                     dE             d eps       ncg     rms          rms(c)                                      
DAV:   1     -.249150855253E+02     .11540E-01    -.31594E+00 13248    .983E+00     .877E-03                                     
RMM:   2     -.249260761216E+02    -.10991E-01    -.43647E-02 12111    .151E-01     .242E-03                                     
RMM:   3     -.249266593000E+02    -.58318E-03    -.79965E-04  8504    .225E-02     .135E-03                                     
RMM:   4     -.249267757489E+02    -.11645E-03    -.53643E-05  5748    .828E-03     .922E-04                                     
RMM:   5     -.249268168766E+02    -.41128E-04    -.13159E-05  5616    .666E-03     .482E-04                                     
RMM:   6     -.249268229008E+02    -.60242E-05    -.25387E-06  4037    .390E-03                                                  
   42 T=  3037. E= -.19823581E+02 F= -.24926823E+02 E0= -.24846397E+02  EK=  .51032E+01 SP=  .00E+00 SK=  .00E+00 mag=       .999
       N       E                     dE             d eps       ncg     rms          rms(c)                                      
DAV:   1     -.249039130297E+02     .22904E-01    -.24772E+00 13464    .994E+00     .113E-02                                     
RMM:   2     -.249267951788E+02    -.22882E-01    -.16470E-01 12152    .195E-01     .373E-03                                     
RMM:   3     -.249269019582E+02    -.10678E-03    -.26108E-03  9094    .293E-02     .227E-03                                     
RMM:   4     -.249269126940E+02    -.10736E-04    -.14688E-04  5686    .992E-03                                                  
   43 T=  3037. E= -.19823482E+02 F= -.24926913E+02 E0= -.24846485E+02  EK=  .51034E+01 SP=  .00E+00 SK=  .00E+00 mag=       .998
       N       E                     dE             d eps       ncg     rms          rms(c)                                      
DAV:   1     -.249194291751E+02     .74728E-02    -.17157E+00 12688    .905E+00     .880E-03                                     
RMM:   2     -.249261171751E+02    -.66880E-02    -.32883E-03 12050    .643E-02     .413E-03                                     
RMM:   3     -.249264198092E+02    -.30263E-03    -.85160E-05  8630    .128E-02     .224E-03                                     
RMM:   4     -.249266791932E+02    -.25938E-03    -.94994E-06  5874    .566E-03     .154E-03                                     
RMM:   5     -.249270301725E+02    -.35098E-03    -.29538E-05  6434    .981E-03     .514E-04                                     
RMM:   6     -.249271717657E+02    -.14159E-03    -.57043E-05  6218    .106E-02     .276E-04                                     
RMM:   7     -.249271838898E+02    -.12124E-04    -.12223E-05  4810    .569E-03                                                  
   44 T=  3037. E= -.19823565E+02 F= -.24927184E+02 E0= -.24846755E+02  EK=  .51036E+01 SP=  .00E+00 SK=  .00E+00 mag=       .998
       N       E                     dE             d eps       ncg     rms          rms(c)                                      
DAV:   1     -.249198229397E+02     .73488E-02    -.23783E+00 13824    .853E+00     .858E-03                                     
RMM:   2     -.249264223772E+02    -.65994E-02    -.59677E-03 12580    .803E-02     .388E-03                                     
RMM:   3     -.249269191786E+02    -.49680E-03    -.92103E-05  8185    .145E-02     .309E-03                                     
RMM:   4     -.249271614515E+02    -.24227E-03    -.23961E-05  6205    .716E-03     .190E-03                                     
RMM:   5     -.249273070181E+02    -.14557E-03    -.29844E-05  6232    .789E-03     .686E-04                                     
RMM:   6     -.249273674162E+02    -.60398E-04    -.32705E-05  5975    .817E-03     .264E-04                                     
RMM:   7     -.249273816238E+02    -.14208E-04    -.94489E-06  4686    .518E-03                                                  
   45 T=  3037. E= -.19823574E+02 F= -.24927382E+02 E0= -.24846950E+02  EK=  .51038E+01 SP=  .00E+00 SK=  .00E+00 mag=       .998
       N       E                     dE             d eps       ncg     rms          rms(c)                                      
DAV:   1     -.249156282111E+02     .11739E-01    -.14655E+00 13984    .808E+00     .856E-03                                     
RMM:   2     -.249270488604E+02    -.11421E-01    -.48386E-02 12367    .142E-01     .341E-03                                     
RMM:   3     -.249275268181E+02    -.47796E-03    -.86030E-04  8438    .180E-02     .254E-03                                     
RMM:   4     -.249275602644E+02    -.33446E-04    -.39012E-05  5663    .680E-03     .168E-03                                     
RMM:   5     -.249275810331E+02    -.20769E-04    -.93412E-06  5766    .494E-03                                                  
   46 T=  3037. E= -.19823588E+02 F= -.24927581E+02 E0= -.24847148E+02  EK=  .51040E+01 SP=  .00E+00 SK=  .00E+00 mag=       .998
       N       E                     dE             d eps       ncg     rms          rms(c)                                      
DAV:   1     -.249180746933E+02     .94856E-02    -.20381E+00 14328    .797E+00     .822E-03                                     
RMM:   2     -.249272536657E+02    -.91790E-02    -.28487E-02 12550    .123E-01     .294E-03                                     
RMM:   3     -.249275455248E+02    -.29186E-03    -.67192E-04  8848    .217E-02     .189E-03                                     
RMM:   4     -.249276993628E+02    -.15384E-03    -.42566E-05  5699    .763E-03     .114E-03                                     
RMM:   5     -.249277490418E+02    -.49679E-04    -.15958E-05  5979    .746E-03     .369E-04                                     
RMM:   6     -.249277592413E+02    -.10200E-04    -.83113E-06  4791    .587E-03                                                  
   47 T=  3037. E= -.19823582E+02 F= -.24927759E+02 E0= -.24847324E+02  EK=  .51042E+01 SP=  .00E+00 SK=  .00E+00 mag=       .998
       N       E                     dE             d eps       ncg     rms          rms(c)                                      
DAV:   1     -.249208857289E+02     .68633E-02    -.98677E-01 13416    .833E+00     .778E-03                                     
RMM:   2     -.249271237604E+02    -.62380E-02    -.58467E-04 12150    .404E-02     .251E-03                                     
RMM:   3     -.249276559824E+02    -.53222E-03    -.32465E-05  8218    .116E-02     .140E-03                                     
RMM:   4     -.249278150957E+02    -.15911E-03    -.12212E-05  5746    .525E-03     .742E-04                                     
RMM:   5     -.249279222714E+02    -.10718E-03    -.51124E-05  6297    .101E-02     .303E-04                                     
RMM:   6     -.249279393793E+02    -.17108E-04    -.70874E-06  4889    .585E-03                                                  
   48 T=  3038. E= -.19823577E+02 F= -.24927939E+02 E0= -.24847502E+02  EK=  .51044E+01 SP=  .00E+00 SK=  .00E+00 mag=       .997
       N       E                     dE             d eps       ncg     rms          rms(c)                                      
DAV:   1     -.249210062989E+02     .69160E-02    -.15409E+00 13616    .898E+00     .788E-03                                     
RMM:   2     -.249275803477E+02    -.65740E-02    -.19661E-03 12499    .539E-02     .276E-03                                     
RMM:   3     -.249279527643E+02    -.37242E-03    -.45545E-05  8405    .117E-02     .157E-03                                     
RMM:   4     -.249279762801E+02    -.23516E-04    -.10435E-05  5963    .662E-03                                                  
   49 T=  3038. E= -.19823432E+02 F= -.24927976E+02 E0= -.24847538E+02  EK=  .51045E+01 SP=  .00E+00 SK=  .00E+00 mag=       .997
       N       E                     dE             d eps       ncg     rms          rms(c)                                      
DAV:   1     -.249207172580E+02     .72355E-02    -.25829E+00 13736    .869E+00     .830E-03                                     
RMM:   2     -.249275760153E+02    -.68588E-02    -.22807E-03 12393    .694E-02     .237E-03                                     
RMM:   3     -.249280208556E+02    -.44484E-03    -.55776E-05  8669    .120E-02     .130E-03                                     
RMM:   4     -.249281481365E+02    -.12728E-03    -.10164E-05  6318    .661E-03     .754E-04                                     
RMM:   5     -.249282823258E+02    -.13419E-03    -.97828E-05  6693    .135E-02     .302E-04                                     
RMM:   6     -.249282977069E+02    -.15381E-04    -.27453E-05  5398    .827E-03                                                  
   50 T=  3038. E= -.19823571E+02 F= -.24928298E+02 E0= -.24847857E+02  EK=  .51047E+01 SP=  .00E+00 SK=  .00E+00 mag=       .997
       N       E                     dE             d eps       ncg     rms          rms(c)                                      
DAV:   1     -.249215717720E+02     .67106E-02    -.30783E+00 14864    .905E+00     .807E-03                                     
RMM:   2     -.249281222895E+02    -.65505E-02    -.51955E-03 12690    .878E-02     .183E-03                                     
RMM:   3     -.249284423682E+02    -.32008E-03    -.16087E-04  8625    .172E-02     .130E-03                                     
RMM:   4     -.249284704894E+02    -.28121E-04    -.68131E-06  5436    .532E-03                                                  
   51 T=  3038. E= -.19823560E+02 F= -.24928470E+02 E0= -.24848027E+02  EK=  .51049E+01 SP=  .00E+00 SK=  .00E+00 mag=       .997
       N       E                     dE             d eps       ncg     rms          rms(c)                                      
DAV:   1     -.249210587012E+02     .73837E-02    -.22857E+00 14368    .799E+00     .824E-03                                     
RMM:   2     -.249283926540E+02    -.73340E-02    -.12993E-02 12776    .107E-01     .184E-03                                     
RMM:   3     -.249286183737E+02    -.22572E-03    -.41287E-04  8713    .187E-02     .989E-04                                     
RMM:   4     -.249286472314E+02    -.28858E-04    -.21934E-05  5220    .574E-03                                                  
   52 T=  3038. E= -.19823555E+02 F= -.24928647E+02 E0= -.24848202E+02  EK=  .51051E+01 SP=  .00E+00 SK=  .00E+00 mag=       .996
       N       E                     dE             d eps       ncg     rms          rms(c)                                      
DAV:   1     -.249213222659E+02     .72961E-02    -.25379E+00 14304    .902E+00     .807E-03                                     
RMM:   2     -.249284599272E+02    -.71377E-02    -.11205E-02 12858    .104E-01     .184E-03                                     
RMM:   3     -.249287817971E+02    -.32187E-03    -.37343E-04  9719    .230E-02     .104E-03                                     
RMM:   4     -.249288201474E+02    -.38350E-04    -.18769E-05  6377    .691E-03     .735E-04                                     
RMM:   5     -.249288318793E+02    -.11732E-04    -.34800E-06  4365    .404E-03                                                  
   53 T=  3038. E= -.19823560E+02 F= -.24928832E+02 E0= -.24848384E+02  EK=  .51053E+01 SP=  .00E+00 SK=  .00E+00 mag=       .996
       N       E                     dE             d eps       ncg     rms          rms(c)                                      
DAV:   1     -.249226519595E+02     .61682E-02    -.11241E+00 13920    .902E+00     .786E-03                                     
RMM:   2     -.249286711897E+02    -.60192E-02    -.16807E-03 12666    .552E-02     .209E-03                                     
RMM:   3     -.249289374918E+02    -.26630E-03    -.71714E-05  8822    .133E-02     .105E-03                                     
RMM:   4     -.249289410301E+02    -.35383E-05    -.10797E-05  6003    .653E-03                                                  
   54 T=  3038. E= -.19823490E+02 F= -.24928941E+02 E0= -.24848492E+02  EK=  .51055E+01 SP=  .00E+00 SK=  .00E+00 mag=       .996
       N       E                     dE             d eps       ncg     rms          rms(c)                                      
DAV:   1     -.249216185856E+02     .73189E-02    -.18277E+00 14696    .903E+00     .815E-03                                     
RMM:   2     -.249286285602E+02    -.70100E-02    -.61770E-03 12724    .808E-02     .247E-03                                     
RMM:   3     -.249291242899E+02    -.49573E-03    -.36508E-04  9849    .216E-02     .114E-03                                     
RMM:   4     -.249291576647E+02    -.33375E-04    -.43723E-05  6437    .805E-03     .767E-04                                     
RMM:   5     -.249291884878E+02    -.30823E-04    -.81225E-06  5222    .471E-03     .291E-04                                     
RMM:   6     -.249291948628E+02    -.63750E-05    -.13304E-06  3688    .337E-03                                                  
   55 T=  3038. E= -.19823565E+02 F= -.24929195E+02 E0= -.24848743E+02  EK=  .51056E+01 SP=  .00E+00 SK=  .00E+00 mag=       .996
       N       E                     dE             d eps       ncg     rms          rms(c)                                      
DAV:   1     -.249202766113E+02     .89119E-02    -.11011E+00 14792    .921E+00     .814E-03                                     
RMM:   2     -.249289711927E+02    -.86946E-02    -.30590E-02 12600    .140E-01     .227E-03                                     
RMM:   3     -.249293343196E+02    -.36313E-03    -.81211E-04  8993    .228E-02     .115E-03                                     
RMM:   4     -.249293587656E+02    -.24446E-04    -.93400E-05  5425    .761E-03                                                  
   56 T=  3038. E= -.19823550E+02 F= -.24929359E+02 E0= -.24848905E+02  EK=  .51058E+01 SP=  .00E+00 SK=  .00E+00 mag=       .995
       N       E                     dE             d eps       ncg     rms          rms(c)                                      
DAV:   1     -.249204926915E+02     .88416E-02    -.32923E+00 15400    .102E+01     .853E-03                                     
RMM:   2     -.249293526615E+02    -.88600E-02    -.31602E-02 13248    .197E-01     .234E-03                                     
RMM:   3     -.249294873424E+02    -.13468E-03    -.50800E-04  9557    .226E-02     .131E-03                                     
RMM:   4     -.249295085174E+02    -.21175E-04    -.26299E-05  5884    .770E-03                                                  
   57 T=  3039. E= -.19823522E+02 F= -.24929509E+02 E0= -.24849053E+02  EK=  .51060E+01 SP=  .00E+00 SK=  .00E+00 mag=       .995
       N       E                     dE             d eps       ncg     rms          rms(c)                                      
DAV:   1     -.249226749933E+02     .68123E-02    -.26506E+00 15424    .982E+00     .844E-03                                     
RMM:   2     -.249294375848E+02    -.67626E-02    -.13249E-02 13382    .133E-01     .258E-03                                     
RMM:   3     -.249296214368E+02    -.18385E-03    -.26086E-04  9394    .201E-02     .156E-03                                     
RMM:   4     -.249296675734E+02    -.46137E-04    -.17150E-05  6050    .604E-03     .917E-04                                     
RMM:   5     -.249297021123E+02    -.34539E-04    -.37044E-06  5002    .422E-03     .358E-04                                     
RMM:   6     -.249297163725E+02    -.14260E-04    -.14652E-06  4274    .366E-03                                                  
   58 T=  3039. E= -.19823553E+02 F= -.24929716E+02 E0= -.24849259E+02  EK=  .51062E+01 SP=  .00E+00 SK=  .00E+00 mag=       .994
       N       E                     dE             d eps       ncg     rms          rms(c)                                      
DAV:   1     -.249235466642E+02     .61554E-02    -.27466E+00 14360    .890E+00     .796E-03                                     
RMM:   2     -.249293191224E+02    -.57725E-02    -.46010E-03 12860    .772E-02     .216E-03                                     
RMM:   3     -.249297811376E+02    -.46202E-03    -.25980E-04  9426    .225E-02     .127E-03                                     
RMM:   4     -.249298753393E+02    -.94202E-04    -.64944E-05  6419    .977E-03     .859E-04                                     
RMM:   5     -.249298876338E+02    -.12295E-04    -.14198E-05  5180    .508E-03                                                  
   59 T=  3039. E= -.19823547E+02 F= -.24929888E+02 E0= -.24849428E+02  EK=  .51063E+01 SP=  .00E+00 SK=  .00E+00 mag=       .994
       N       E                     dE             d eps       ncg     rms          rms(c)                                      
DAV:   1     -.249242088141E+02     .56665E-02    -.26924E+00 14600    .909E+00     .805E-03                                     
RMM:   2     -.249298550321E+02    -.56462E-02    -.29610E-03 13045    .791E-02     .245E-03                                     
RMM:   3     -.249300314168E+02    -.17638E-03    -.83653E-05  8945    .135E-02     .126E-03                                     
RMM:   4     -.249300499170E+02    -.18500E-04    -.10354E-05  5775    .578E-03                                                  
   60 T=  3039. E= -.19823532E+02 F= -.24930050E+02 E0= -.24849588E+02  EK=  .51065E+01 SP=  .00E+00 SK=  .00E+00 mag=       .994
       N       E                     dE             d eps       ncg     rms          rms(c)                                      
DAV:   1     -.249245099056E+02     .55215E-02    -.16670E+00 14808    .100E+01     .828E-03                                     
RMM:   2     -.249301413232E+02    -.56314E-02    -.68133E-03 13215    .978E-02     .244E-03                                     
RMM:   3     -.249301957826E+02    -.54459E-04    -.86556E-05  8820    .114E-02     .140E-03                                     
RMM:   4     -.249302170245E+02    -.21242E-04    -.72913E-06  5437    .533E-03                                                  
   61 T=  3039. E= -.19823521E+02 F= -.24930217E+02 E0= -.24849753E+02  EK=  .51067E+01 SP=  .00E+00 SK=  .00E+00 mag=       .993
       N       E                     dE             d eps       ncg     rms          rms(c)                                      
DAV:   1     -.249241200597E+02     .60757E-02    -.12950E+00 15072    .856E+00     .835E-03                                     
RMM:   2     -.249301949058E+02    -.60748E-02    -.89523E-03 13238    .109E-01     .237E-03                                     
RMM:   3     -.249303807767E+02    -.18587E-03    -.17326E-04  9704    .164E-02     .119E-03                                     
RMM:   4     -.249304039811E+02    -.23204E-04    -.14699E-05  5979    .654E-03                                                  
   62 T=  3039. E= -.19823528E+02 F= -.24930404E+02 E0= -.24849937E+02  EK=  .51069E+01 SP=  .00E+00 SK=  .00E+00 mag=       .993
       N       E                     dE             d eps       ncg     rms          rms(c)                                      
DAV:   1     -.249243516154E+02     .60292E-02    -.35297E+00 14928    .101E+01     .806E-03                                     
RMM:   2     -.249303148139E+02    -.59632E-02    -.82500E-03 13321    .105E-01     .242E-03                                     
RMM:   3     -.249305431059E+02    -.22829E-03    -.15743E-04  8998    .157E-02     .119E-03                                     
RMM:   4     -.249305658690E+02    -.22763E-04    -.12839E-05  5976    .639E-03                                                  
   63 T=  3039. E= -.19823512E+02 F= -.24930566E+02 E0= -.24850097E+02  EK=  .51071E+01 SP=  .00E+00 SK=  .00E+00 mag=       .992
       N       E                     dE             d eps       ncg     rms          rms(c)                                      
DAV:   1     -.249214775059E+02     .90656E-02    -.11985E+00 15080    .964E+00     .965E-03                                     
RMM:   2     -.249305637055E+02    -.90862E-02    -.38535E-02 13420    .180E-01     .282E-03                                     
RMM:   3     -.249307234317E+02    -.15973E-03    -.43904E-04  9789    .222E-02     .168E-03                                     
RMM:   4     -.249307471069E+02    -.23675E-04    -.26539E-05  5920    .633E-03                                                  
   64 T=  3039. E= -.19823513E+02 F= -.24930747E+02 E0= -.24850276E+02  EK=  .51072E+01 SP=  .00E+00 SK=  .00E+00 mag=       .992
       N       E                     dE             d eps       ncg     rms          rms(c)                                      
DAV:   1     -.249262031073E+02     .45203E-02    -.81583E-01 14720    .756E+00     .855E-03                                     
RMM:   2     -.249307946852E+02    -.45916E-02    -.41747E-03 13129    .927E-02     .242E-03                                     
RMM:   3     -.249308615703E+02    -.66885E-04    -.53210E-05  8495    .108E-02     .148E-03                                     
RMM:   4     -.249309245082E+02    -.62938E-04    -.62423E-06  6242    .580E-03     .654E-04                                     
RMM:   5     -.249309430772E+02    -.18569E-04    -.17395E-06  4442    .379E-03                                                  
   65 T=  3039. E= -.19823523E+02 F= -.24930943E+02 E0= -.24850469E+02  EK=  .51074E+01 SP=  .00E+00 SK=  .00E+00 mag=       .991
       N       E                     dE             d eps       ncg     rms          rms(c)                                      
DAV:   1     -.249264460291E+02     .44785E-02    -.19386E+00 15024    .744E+00     .817E-03                                     
RMM:   2     -.249310329761E+02    -.45869E-02    -.57890E-03 13097    .100E-01     .241E-03                                     
RMM:   3     -.249311107180E+02    -.77742E-04    -.11381E-04  8899    .140E-02     .176E-03                                     
RMM:   4     -.249311167175E+02    -.59996E-05    -.69505E-06  5394    .493E-03                                                  
   66 T=  3040. E= -.19823511E+02 F= -.24931117E+02 E0= -.24850641E+02  EK=  .51076E+01 SP=  .00E+00 SK=  .00E+00 mag=       .990
       N       E                     dE             d eps       ncg     rms          rms(c)                                      
DAV:   1     -.249263810510E+02     .47297E-02    -.16208E+00 14864    .838E+00     .831E-03                                     
RMM:   2     -.249311646293E+02    -.47836E-02    -.56327E-03 12913    .984E-02     .198E-03                                     
RMM:   3     -.249312476332E+02    -.83004E-04    -.91344E-05  8680    .127E-02     .127E-03                                     
RMM:   4     -.249312941803E+02    -.46547E-04    -.80557E-06  5810    .533E-03     .771E-04                                     
RMM:   5     -.249313150822E+02    -.20902E-04    -.91591E-06  5680    .558E-03                                                  
   67 T=  3040. E= -.19823521E+02 F= -.24931315E+02 E0= -.24850837E+02  EK=  .51078E+01 SP=  .00E+00 SK=  .00E+00 mag=       .990
       N       E                     dE             d eps       ncg     rms          rms(c)                                      
DAV:   1     -.249236818788E+02     .76123E-02    -.18437E+00 14896    .930E+00     .872E-03                                     
RMM:   2     -.249312721106E+02    -.75902E-02    -.35782E-02 13203    .194E-01     .215E-03                                     
RMM:   3     -.249314760391E+02    -.20393E-03    -.52462E-04  9026    .252E-02     .132E-03                                     
RMM:   4     -.249314929034E+02    -.16864E-04    -.28022E-05  5766    .671E-03                                                  
   68 T=  3040. E= -.19823506E+02 F= -.24931493E+02 E0= -.24851012E+02  EK=  .51080E+01 SP=  .00E+00 SK=  .00E+00 mag=       .989
       N       E                     dE             d eps       ncg     rms          rms(c)                                      
DAV:   1     -.249266361593E+02     .48399E-02    -.10375E+00 15168    .706E+00     .833E-03                                     
RMM:   2     -.249314949129E+02    -.48588E-02    -.79677E-03 12992    .117E-01     .203E-03                                     
RMM:   3     -.249316856112E+02    -.19070E-03    -.23118E-04  8961    .194E-02     .112E-03                                     
RMM:   4     -.249316949225E+02    -.93113E-05    -.12571E-05  5703    .584E-03                                                  
   69 T=  3040. E= -.19823509E+02 F= -.24931695E+02 E0= -.24851212E+02  EK=  .51082E+01 SP=  .00E+00 SK=  .00E+00 mag=       .988
       N       E                     dE             d eps       ncg     rms          rms(c)                                      
DAV:   1     -.249267735788E+02     .49120E-02    -.17253E+00 15160    .844E+00     .863E-03                                     
RMM:   2     -.249318028401E+02    -.50293E-02    -.18854E-02 13028    .148E-01     .225E-03                                     
RMM:   3     -.249318508706E+02    -.48030E-04    -.25323E-04  8415    .143E-02     .143E-03                                     
RMM:   4     -.249318802555E+02    -.29385E-04    -.27202E-05  5506    .598E-03                                                  
   70 T=  3040. E= -.19823488E+02 F= -.24931880E+02 E0= -.24851395E+02  EK=  .51084E+01 SP=  .00E+00 SK=  .00E+00 mag=       .987
       N       E                     dE             d eps       ncg     rms          rms(c)                                      
DAV:   1     -.249182331885E+02     .13618E-01    -.14504E+00 15208    .911E+00     .108E-02                                     
RMM:   2     -.249320633061E+02    -.13830E-01    -.10855E-01 13463    .246E-01     .417E-03                                     
RMM:   3     -.249320399502E+02     .23356E-04    -.96587E-04  9452    .226E-02     .236E-03                                     
RMM:   4     -.249320708673E+02    -.30917E-04    -.41137E-05  5531    .705E-03     .169E-03                                     
RMM:   5     -.249320982193E+02    -.27352E-04    -.51813E-06  5823    .480E-03                                                  
   71 T=  3040. E= -.19823494E+02 F= -.24932098E+02 E0= -.24851610E+02  EK=  .51086E+01 SP=  .00E+00 SK=  .00E+00 mag=       .987
       N       E                     dE             d eps       ncg     rms          rms(c)                                      
DAV:   1     -.249288627920E+02     .32081E-02    -.87088E-01 15056    .844E+00     .826E-03                                     
RMM:   2     -.249321549727E+02    -.32922E-02    -.31735E-03 13134    .935E-02     .251E-03                                     
RMM:   3     -.249322998058E+02    -.14483E-03    -.11557E-04  8597    .159E-02     .150E-03                                     
RMM:   4     -.249323106725E+02    -.10867E-04    -.45916E-06  5488    .483E-03                                                  
   72 T=  3040. E= -.19823486E+02 F= -.24932311E+02 E0= -.24851820E+02  EK=  .51088E+01 SP=  .00E+00 SK=  .00E+00 mag=       .986
       N       E                     dE             d eps       ncg     rms          rms(c)                                      
DAV:   1     -.249291899599E+02     .31098E-02    -.25186E+00 14984    .856E+00     .844E-03                                     
RMM:   2     -.249325026091E+02    -.33126E-02    -.44189E-03 13242    .102E-01     .287E-03                                     
RMM:   3     -.249325364650E+02    -.33856E-04    -.41968E-05  8862    .101E-02     .193E-03                                     
RMM:   4     -.249325418260E+02    -.53610E-05    -.39268E-06  5293    .452E-03                                                  
   73 T=  3040. E= -.19823487E+02 F= -.24932542E+02 E0= -.24852049E+02  EK=  .51091E+01 SP=  .00E+00 SK=  .00E+00 mag=       .985
       N       E                     dE             d eps       ncg     rms          rms(c)                                      
DAV:   1     -.249272433118E+02     .52932E-02    -.26088E+00 14568    .902E+00     .943E-03                                     
RMM:   2     -.249326167612E+02    -.53734E-02    -.31290E-02 13345    .171E-01     .302E-03                                     
RMM:   3     -.249327027799E+02    -.86019E-04    -.47601E-04  9069    .159E-02     .222E-03                                     
RMM:   4     -.249327471795E+02    -.44400E-04    -.25604E-05  6088    .648E-03     .130E-03                                     
RMM:   5     -.249327786483E+02    -.31469E-04    -.72015E-06  6272    .567E-03     .421E-04                                     
RMM:   6     -.249327810372E+02    -.23889E-05    -.53406E-07  3404    .295E-03                                                  
   74 T=  3041. E= -.19823485E+02 F= -.24932781E+02 E0= -.24852285E+02  EK=  .51093E+01 SP=  .00E+00 SK=  .00E+00 mag=       .984
       N       E                     dE             d eps       ncg     rms          rms(c)                                      
DAV:   1     -.249219419328E+02     .10837E-01    -.25942E+00 14960    .911E+00     .909E-03                                     
RMM:   2     -.249333508843E+02    -.11409E-01    -.90570E-02 13312    .187E-01     .317E-03                                     
RMM:   3     -.249330090440E+02     .34184E-03    -.13252E-03  9039    .219E-02     .169E-03                                     
RMM:   4     -.249330232684E+02    -.14224E-04    -.65766E-05  5139    .685E-03                                                  
   75 T=  3041. E= -.19823477E+02 F= -.24933023E+02 E0= -.24852525E+02  EK=  .51095E+01 SP=  .00E+00 SK=  .00E+00 mag=       .983
       N       E                     dE             d eps       ncg     rms          rms(c)                                      
DAV:   1     -.249300615811E+02     .29475E-02    -.26479E+00 15328    .807E+00     .908E-03                                     
RMM:   2     -.249332479046E+02    -.31863E-02    -.88393E-03 13012    .129E-01     .386E-03                                     
RMM:   3     -.249332546407E+02    -.67361E-05    -.84139E-05  9633    .130E-02                                                  
   76 T=  3041. E= -.19823444E+02 F= -.24933255E+02 E0= -.24852753E+02  EK=  .51098E+01 SP=  .00E+00 SK=  .00E+00 mag=       .982
       N       E                     dE             d eps       ncg     rms          rms(c)                                      
DAV:   1     -.249198210334E+02     .13427E-01    -.29938E+00 15216    .818E+00     .107E-02                                     
RMM:   2     -.249332036055E+02    -.13383E-01    -.10619E-01 13317    .198E-01     .371E-03                                     
RMM:   3     -.249333706685E+02    -.16706E-03    -.27483E-03  9043    .265E-02     .277E-03                                     
RMM:   4     -.249334521896E+02    -.81521E-04    -.12128E-04  6346    .843E-03     .219E-03                                     
RMM:   5     -.249335453558E+02    -.93166E-04    -.60384E-05  7481    .927E-03     .941E-04                                     
RMM:   6     -.249335683252E+02    -.22969E-04    -.11885E-05  6002    .648E-03                                                  
   77 T=  3041. E= -.19823478E+02 F= -.24933568E+02 E0= -.24853065E+02  EK=  .51101E+01 SP=  .00E+00 SK=  .00E+00 mag=       .981
       N       E                     dE             d eps       ncg     rms          rms(c)                                      
DAV:   1     -.249311276039E+02     .24178E-02    -.13486E+00 14320    .968E+00     .850E-03                                     
RMM:   2     -.249337672675E+02    -.26397E-02    -.17612E-02 12702    .996E-02     .301E-03                                     
RMM:   3     -.249338553993E+02    -.88132E-04    -.34963E-04  8469    .142E-02     .171E-03                                     
RMM:   4     -.249338682777E+02    -.12878E-04    -.25235E-05  5022    .546E-03                                                  
   78 T=  3041. E= -.19823478E+02 F= -.24933868E+02 E0= -.24853362E+02  EK=  .51104E+01 SP=  .00E+00 SK=  .00E+00 mag=       .979
       N       E                     dE             d eps       ncg     rms          rms(c)                                      
DAV:   1     -.249312182355E+02     .26372E-02    -.24628E+00 14152    .892E+00     .897E-03                                     
RMM:   2     -.249341335994E+02    -.29154E-02    -.15488E-02 12939    .122E-01     .323E-03                                     
RMM:   3     -.249341855277E+02    -.51928E-04    -.12440E-04  9144    .127E-02     .199E-03                                     
RMM:   4     -.249341873130E+02    -.17853E-05    -.56025E-06  4791    .454E-03                                                  
   79 T=  3041. E= -.19823473E+02 F= -.24934187E+02 E0= -.24853678E+02  EK=  .51107E+01 SP=  .00E+00 SK=  .00E+00 mag=       .978
       N       E                     dE             d eps       ncg     rms          rms(c)                                      
DAV:   1     -.249333787393E+02     .80679E-03    -.17746E+00 13832    .908E+00     .783E-03                                     
RMM:   2     -.249345136455E+02    -.11349E-02    -.31806E-03 12635    .750E-02     .312E-03                                     
RMM:   3     -.249345339524E+02    -.20307E-04    -.47724E-05  8590    .930E-03                                                  
   80 T=  3042. E= -.19823467E+02 F= -.24934534E+02 E0= -.24854023E+02  EK=  .51111E+01 SP=  .00E+00 SK=  .00E+00 mag=       .976
       N       E                     dE             d eps       ncg     rms          rms(c)                                      
DAV:   1     -.249338835075E+02     .63014E-03    -.10606E+00 13848    .804E+00     .932E-03                                     
[...]
RMM:   8     -.249153946195E+02    -.54614E-04    -.49741E-07  3152    .311E-03     .201E-04                                     
RMM:   9     -.249154010106E+02    -.63910E-05    -.27465E-07  2826    .294E-03                                                  
  544 T=  3031. E= -.19821776E+02 F= -.24915401E+02 E0= -.24834166E+02  EK=  .50936E+01 SP=  .00E+00 SK=  .00E+00 mag=      1.000
       N       E                     dE             d eps       ncg     rms          rms(c)                                      
DAV:   1     -.249077781868E+02     .76164E-02    -.23401E+00 11224    .844E+00     .780E-03                                     
RMM:   2     -.249098345089E+02    -.20563E-02    -.21303E-03 10950    .413E-02     .571E-03                                     
RMM:   3     -.249138535168E+02    -.40190E-02    -.29714E-05  7586    .786E-03     .203E-03                                     
RMM:   4     -.249151004376E+02    -.12469E-02    -.58157E-06  6440    .539E-03     .178E-03                                     
RMM:   5     -.249150722232E+02     .28214E-04    -.30026E-06  4711    .451E-03                                                  
  545 T=  3031. E= -.19821690E+02 F= -.24915072E+02 E0= -.24833836E+02  EK=  .50934E+01 SP=  .00E+00 SK=  .00E+00 mag=      1.000
       N       E                     dE             d eps       ncg     rms          rms(c)                                      
DAV:   1     -.248947061816E+02     .20394E-01    -.28334E+00 11632    .920E+00     .105E-02                                     
RMM:   2     -.249101085088E+02    -.15402E-01    -.13417E-01 11396    .162E-01     .602E-03                                     
RMM:   3     -.249110878568E+02    -.97935E-03    -.32258E-03  8881    .278E-02     .615E-03                                     
RMM:   4     -.249114457217E+02    -.35786E-03    -.17337E-04  4477    .881E-03     .442E-03                                     
RMM:   5     -.249124855872E+02    -.10399E-02    -.14776E-05  5490    .485E-03     .364E-03                                     
RMM:   6     -.249139089753E+02    -.14234E-02    -.19747E-06  4637    .395E-03     .134E-03                                     
RMM:   7     -.249148667486E+02    -.95777E-03    -.29119E-06  5663    .444E-03     .531E-04                                     
RMM:   8     -.249149125332E+02    -.45785E-04    -.95305E-07  3360    .331E-03     .321E-04                                     
RMM:   9     -.249149048153E+02     .77179E-05    -.22816E-07  2741    .281E-03                                                  
  546 T=  3031. E= -.19821765E+02 F= -.24914905E+02 E0= -.24833668E+02  EK=  .50931E+01 SP=  .00E+00 SK=  .00E+00 mag=      1.000
       N       E                     dE             d eps       ncg     rms          rms(c)                                      
DAV:   1     -.249049339396E+02     .99786E-02    -.13800E+00 11248    .740E+00     .810E-03                                     
RMM:   2     -.249091110789E+02    -.41771E-02    -.22737E-02 11008    .895E-02     .579E-03                                     
RMM:   3     -.249109174746E+02    -.18064E-02    -.52743E-04  8078    .134E-02     .559E-03                                     
RMM:   4     -.249121755011E+02    -.12580E-02    -.45665E-05  4910    .586E-03     .280E-03                                     
RMM:   5     -.249142858369E+02    -.21103E-02    -.78924E-06  5891    .479E-03     .140E-03                                     
RMM:   6     -.249145489078E+02    -.26307E-03    -.94824E-07  3240    .311E-03     .476E-04                                     
RMM:   7     -.249146546416E+02    -.10573E-03    -.62099E-07  3490    .323E-03     .281E-04                                     
RMM:   8     -.249146622471E+02    -.76055E-05    -.73703E-07  3789    .345E-03                                                  
  547 T=  3031. E= -.19821766E+02 F= -.24914662E+02 E0= -.24833425E+02  EK=  .50929E+01 SP=  .00E+00 SK=  .00E+00 mag=      1.000
       N       E                     dE             d eps       ncg     rms          rms(c)                                      
DAV:   1     -.249009936996E+02     .13661E-01    -.17877E+00 11648    .776E+00     .902E-03                                     
RMM:   2     -.249089270899E+02    -.79334E-02    -.60880E-02 11014    .122E-01     .618E-03                                     
RMM:   3     -.249100095001E+02    -.10824E-02    -.12821E-03  8941    .163E-02     .654E-03                                     
RMM:   4     -.249109369900E+02    -.92749E-03    -.16623E-04  4729    .634E-03     .405E-03                                     
RMM:   5     -.249121467504E+02    -.12098E-02    -.60696E-06  5081    .402E-03     .317E-03                                     
RMM:   6     -.249136733388E+02    -.15266E-02    -.15551E-06  4757    .384E-03     .111E-03                                     
RMM:   7     -.249143793673E+02    -.70603E-03    -.19543E-06  4775    .396E-03     .374E-04                                     
RMM:   8     -.249144072033E+02    -.27836E-04    -.13764E-06  3938    .376E-03                                                  
  548 T=  3031. E= -.19821755E+02 F= -.24914407E+02 E0= -.24833169E+02  EK=  .50927E+01 SP=  .00E+00 SK=  .00E+00 mag=      1.000
       N       E                     dE             d eps       ncg     rms          rms(c)                                      
DAV:   1     -.249066357897E+02     .77436E-02    -.11833E+00 11768    .787E+00     .785E-03                                     
RMM:   2     -.249088512381E+02    -.22154E-02    -.37305E-03 11459    .607E-02     .567E-03                                     
RMM:   3     -.249125712597E+02    -.37200E-02    -.47785E-05  7429    .946E-03     .233E-03                                     
RMM:   4     -.249134283749E+02    -.85712E-03    -.46248E-06  5795    .506E-03     .321E-03                                     
RMM:   5     -.249141555687E+02    -.72719E-03    -.49555E-06  5672    .521E-03     .843E-04                                     
RMM:   6     -.249141241307E+02     .31438E-04    -.37178E-07  2942    .296E-03     .404E-04                                     
RMM:   7     -.249141336561E+02    -.95254E-05    -.53219E-08  2032    .257E-03                                                  
  549 T=  3030. E= -.19821725E+02 F= -.24914134E+02 E0= -.24832894E+02  EK=  .50924E+01 SP=  .00E+00 SK=  .00E+00 mag=      1.000
       N       E                     dE             d eps       ncg     rms          rms(c)                                      
DAV:   1     -.249065238816E+02     .76002E-02    -.96230E-01 11816    .869E+00     .780E-03                                     
RMM:   2     -.249086094610E+02    -.20856E-02    -.24122E-03 11095    .408E-02     .569E-03                                     
RMM:   3     -.249128008281E+02    -.41914E-02    -.61881E-05  7791    .877E-03     .161E-03                                     
RMM:   4     -.249138025107E+02    -.10017E-02    -.50032E-06  5811    .497E-03     .255E-03                                     
RMM:   5     -.249138690767E+02    -.66566E-04    -.29660E-06  4588    .443E-03     .848E-04                                     
RMM:   6     -.249138601516E+02     .89251E-05    -.13014E-07  2412    .259E-03                                                  
  550 T=  3030. E= -.19821695E+02 F= -.24913860E+02 E0= -.24832620E+02  EK=  .50922E+01 SP=  .00E+00 SK=  .00E+00 mag=      1.000
       N       E                     dE             d eps       ncg     rms          rms(c)                                      
DAV:   1     -.249065569519E+02     .73121E-02    -.33970E+00 11344    .858E+00     .785E-03                                     
RMM:   2     -.249084274722E+02    -.18705E-02    -.45850E-04 11336    .301E-02     .567E-03                                     
RMM:   3     -.249125718356E+02    -.41444E-02    -.12047E-05  8335    .706E-03     .409E-03                                     
RMM:   4     -.249135538538E+02    -.98202E-03    -.29870E-06  5651    .452E-03     .150E-03                                     
RMM:   5     -.249135741929E+02    -.20339E-04    -.34254E-06  5213    .476E-03                                                  
  551 T=  3030. E= -.19821653E+02 F= -.24913574E+02 E0= -.24832334E+02  EK=  .50919E+01 SP=  .00E+00 SK=  .00E+00 mag=      1.000
       N       E                     dE             d eps       ncg     rms          rms(c)                                      
DAV:   1     -.249064036826E+02     .71502E-02    -.20896E+00 11056    .839E+00     .770E-03                                     
RMM:   2     -.249082543001E+02    -.18506E-02    -.46421E-04 11230    .299E-02     .562E-03                                     
RMM:   3     -.249099234525E+02    -.16692E-02    -.14032E-05  8786    .711E-03     .640E-03                                     
RMM:   4     -.249130228288E+02    -.30994E-02    -.53663E-06  7399    .544E-03     .132E-03                                     
RMM:   5     -.249133840454E+02    -.36122E-03    -.41784E-06  5382    .490E-03     .112E-03                                     
RMM:   6     -.249133787367E+02     .53087E-05    -.15320E-07  2450    .246E-03                                                  
  552 T=  3030. E= -.19821702E+02 F= -.24913379E+02 E0= -.24832137E+02  EK=  .50917E+01 SP=  .00E+00 SK=  .00E+00 mag=      1.000
       N       E                     dE             d eps       ncg     rms          rms(c)                                      
DAV:   1     -.249056938158E+02     .76902E-02    -.20719E+00 11368    .890E+00     .785E-03                                     
RMM:   2     -.249077532262E+02    -.20594E-02    -.17493E-03 11171    .357E-02     .581E-03                                     
RMM:   3     -.249095453801E+02    -.17922E-02    -.53568E-05  8817    .809E-03     .631E-03                                     
RMM:   4     -.249121985336E+02    -.26532E-02    -.59814E-06  6739    .518E-03     .141E-03                                     
RMM:   5     -.249131674057E+02    -.96887E-03    -.51503E-06  5540    .506E-03     .582E-04                                     
RMM:   6     -.249131506140E+02     .16792E-04    -.28157E-07  2728    .274E-03                                                  
  553 T=  3030. E= -.19821718E+02 F= -.24913151E+02 E0= -.24831908E+02  EK=  .50914E+01 SP=  .00E+00 SK=  .00E+00 mag=      1.000
       N       E                     dE             d eps       ncg     rms          rms(c)                                      
DAV:   1     -.249052032030E+02     .79642E-02    -.12221E+00 11648    .837E+00     .796E-03                                     
RMM:   2     -.249076828494E+02    -.24796E-02    -.65797E-03 11310    .583E-02     .579E-03                                     
RMM:   3     -.249098747813E+02    -.21919E-02    -.10556E-04  8120    .939E-03     .523E-03                                     
RMM:   4     -.249111787710E+02    -.13040E-02    -.12281E-05  5290    .494E-03     .242E-03                                     
RMM:   5     -.249128743670E+02    -.16956E-02    -.41666E-06  5863    .475E-03     .131E-03                                     
RMM:   6     -.249129097321E+02    -.35365E-04    -.18034E-06  4092    .394E-03     .444E-04                                     
RMM:   7     -.249129096527E+02     .79450E-07    -.71153E-08  2048    .253E-03                                                  
  554 T=  3030. E= -.19821722E+02 F= -.24912910E+02 E0= -.24831666E+02  EK=  .50912E+01 SP=  .00E+00 SK=  .00E+00 mag=      1.000
       N       E                     dE             d eps       ncg     rms          rms(c)                                      
DAV:   1     -.249052346020E+02     .76751E-02    -.18940E+00 11360    .935E+00     .777E-03                                     
RMM:   2     -.249073070997E+02    -.20725E-02    -.20438E-03 11410    .450E-02     .578E-03                                     
RMM:   3     -.249104528240E+02    -.31457E-02    -.28912E-05  7986    .784E-03     .427E-03                                     
RMM:   4     -.249118356873E+02    -.13829E-02    -.40595E-06  6042    .477E-03     .231E-03                                     
RMM:   5     -.249126741179E+02    -.83843E-03    -.24381E-06  5222    .423E-03     .148E-03                                     
RMM:   6     -.249126449378E+02     .29180E-04    -.13499E-06  3804    .371E-03                                                  
  555 T=  3030. E= -.19821702E+02 F= -.24912645E+02 E0= -.24831401E+02  EK=  .50909E+01 SP=  .00E+00 SK=  .00E+00 mag=      1.000
       N       E                     dE             d eps       ncg     rms          rms(c)                                      
DAV:   1     -.249038257963E+02     .88483E-02    -.25416E+00 11824    .979E+00     .804E-03                                     
RMM:   2     -.249072038754E+02    -.33781E-02    -.15616E-02 11725    .100E-01     .579E-03                                     
RMM:   3     -.249087961405E+02    -.15923E-02    -.21660E-04  8302    .123E-02     .563E-03                                     
RMM:   4     -.249099094465E+02    -.11133E-02    -.12980E-05  5013    .526E-03     .311E-03                                     
RMM:   5     -.249117149906E+02    -.18055E-02    -.32121E-06  6438    .449E-03     .226E-03                                     
RMM:   6     -.249124504374E+02    -.73545E-03    -.23845E-06  4674    .404E-03     .492E-04                                     
RMM:   7     -.249124260365E+02     .24401E-04    -.74168E-07  3300    .340E-03                                                  
  556 T=  3029. E= -.19821729E+02 F= -.24912426E+02 E0= -.24831181E+02  EK=  .50907E+01 SP=  .00E+00 SK=  .00E+00 mag=      1.000
       N       E                     dE             d eps       ncg     rms          rms(c)                                      
DAV:   1     -.249035652820E+02     .88852E-02    -.15992E+00 11664    .893E+00     .792E-03                                     
RMM:   2     -.249067998776E+02    -.32346E-02    -.13624E-02 11257    .736E-02     .577E-03                                     
RMM:   3     -.249096385886E+02    -.28387E-02    -.27876E-04  8160    .122E-02     .424E-03                                     
RMM:   4     -.249109605241E+02    -.13219E-02    -.24424E-05  5791    .590E-03     .276E-03                                     
RMM:   5     -.249118641827E+02    -.90366E-03    -.33144E-06  5151    .415E-03     .174E-03                                     
RMM:   6     -.249122057017E+02    -.34152E-03    -.22093E-06  4454    .409E-03     .469E-04                                     
RMM:   7     -.249122023744E+02     .33273E-05    -.14644E-07  2405    .274E-03                                                  
  557 T=  3029. E= -.19821751E+02 F= -.24912202E+02 E0= -.24830957E+02  EK=  .50905E+01 SP=  .00E+00 SK=  .00E+00 mag=      1.000
       N       E                     dE             d eps       ncg     rms          rms(c)                                      
DAV:   1     -.249015159653E+02     .10690E-01    -.14871E+00 11560    .919E+00     .857E-03                                     
RMM:   2     -.249065381370E+02    -.50222E-02    -.31259E-02 11625    .131E-01     .588E-03                                     
RMM:   3     -.249078574727E+02    -.13193E-02    -.72996E-04  8916    .195E-02     .618E-03                                     
RMM:   4     -.249086920899E+02    -.83462E-03    -.62865E-05  4823    .743E-03     .370E-03                                     
RMM:   5     -.249102236030E+02    -.15315E-02    -.58166E-06  6032    .447E-03     .296E-03                                     
RMM:   6     -.249117186323E+02    -.14950E-02    -.20424E-06  5004    .403E-03     .600E-04                                     
RMM:   7     -.249119519262E+02    -.23329E-03    -.95223E-07  3774    .342E-03     .350E-04                                     
RMM:   8     -.249119585944E+02    -.66683E-05    -.45830E-07  3184    .319E-03                                                  
  558 T=  3029. E= -.19821753E+02 F= -.24911959E+02 E0= -.24830712E+02  EK=  .50902E+01 SP=  .00E+00 SK=  .00E+00 mag=      1.000
       N       E                     dE             d eps       ncg     rms          rms(c)                                      
DAV:   1     -.249041975250E+02     .77544E-02    -.15176E+00 11568    .900E+00     .778E-03                                     
RMM:   2     -.249063654622E+02    -.21679E-02    -.31678E-03 11398    .483E-02     .574E-03                                     
RMM:   3     -.249100384184E+02    -.36730E-02    -.13176E-04  8217    .956E-03     .249E-03                                     
RMM:   4     -.249113654089E+02    -.13270E-02    -.87863E-06  6250    .532E-03     .206E-03                                     
RMM:   5     -.249117173404E+02    -.35193E-03    -.26974E-06  4686    .420E-03     .171E-03                                     
RMM:   6     -.249116414310E+02     .75909E-04    -.83467E-07  3350    .333E-03     .419E-04                                     
RMM:   7     -.249116698898E+02    -.28459E-04    -.10287E-07  2271    .265E-03                                                  
  559 T=  3029. E= -.19821710E+02 F= -.24911670E+02 E0= -.24830423E+02  EK=  .50900E+01 SP=  .00E+00 SK=  .00E+00 mag=      1.000
       N       E                     dE             d eps       ncg     rms          rms(c)                                      
DAV:   1     -.249027157128E+02     .89257E-02    -.12458E+00 11432    .861E+00     .797E-03                                     
RMM:   2     -.249061221003E+02    -.34064E-02    -.15615E-02 11604    .957E-02     .574E-03                                     
RMM:   3     -.249085718070E+02    -.24497E-02    -.19309E-04  7095    .123E-02     .342E-03                                     
RMM:   4     -.249098326131E+02    -.12608E-02    -.15582E-05  5649    .571E-03     .357E-03                                     
RMM:   5     -.249109839765E+02    -.11514E-02    -.21928E-06  5084    .401E-03     .212E-03                                     
RMM:   6     -.249114675370E+02    -.48356E-03    -.19419E-06  4562    .393E-03     .432E-04                                     
RMM:   7     -.249114481516E+02     .19385E-04    -.45447E-07  3014    .313E-03                                                  
  560 T=  3029. E= -.19821735E+02 F= -.24911448E+02 E0= -.24830201E+02  EK=  .50897E+01 SP=  .00E+00 SK=  .00E+00 mag=      1.000
       N       E                     dE             d eps       ncg     rms          rms(c)                                      
DAV:   1     -.249032541078E+02     .82134E-02    -.11121E+00 11792    .783E+00     .783E-03                                     
RMM:   2     -.249058839090E+02    -.26298E-02    -.77929E-03 11183    .671E-02     .571E-03                                     
RMM:   3     -.249089693696E+02    -.30855E-02    -.16123E-04  8173    .115E-02     .362E-03                                     
RMM:   4     -.249100155292E+02    -.10462E-02    -.15821E-05  5007    .535E-03     .270E-03                                     
RMM:   5     -.249109874462E+02    -.97192E-03    -.26353E-06  5224    .412E-03     .166E-03                                     
RMM:   6     -.249111849604E+02    -.19751E-03    -.20645E-06  4451    .406E-03     .392E-04                                     
RMM:   7     -.249111893833E+02    -.44230E-05    -.10170E-07  2251    .256E-03                                                  
  561 T=  3029. E= -.19821723E+02 F= -.24911189E+02 E0= -.24829941E+02  EK=  .50895E+01 SP=  .00E+00 SK=  .00E+00 mag=      1.000
