       N       E                     dE             d eps       ncg     rms          rms(c)                                      
DAV:   1      .111283898736E+04     .11128E+04    -.62896E+04 16320    .996E+02                                                  
DAV:   2      .172581166952E+02    -.10956E+04    -.10386E+04 16904    .279E+02                                                  
DAV:   3     -.253873125975E+02    -.42645E+02    -.42093E+02 17992    .672E+01                                                  
DAV:   4     -.257615991210E+02    -.37429E+00    -.37377E+00 18064    .606E+00                                                  
DAV:   5     -.257659791457E+02    -.43800E-02    -.43799E-02 18232    .559E-01     .168E+01                                     
RMM:   6     -.242520967161E+02     .15139E+01    -.57377E+00 16320    .812E+00     .107E+01                                     
RMM:   7     -.323497692061E+02    -.80977E+01    -.12606E+01 16342    .716E+00     .958E+00                                     
RMM:   8     -.273717619507E+02     .49780E+01    -.91992E+00 16360    .558E+00     .567E+00                                     
RMM:   9     -.258089752190E+02     .15628E+01    -.33298E+00 16390    .326E+00     .442E+00                                     
RMM:  10     -.249048312101E+02     .90414E+00    -.77213E-01 16376    .193E+00     .122E+00                                     
RMM:  11     -.248223279243E+02     .82503E-01    -.16622E-01 16401    .930E-01     .275E-01                                     
RMM:  12     -.248195260386E+02     .28019E-02    -.70082E-03 16411    .224E-01     .140E-01                                     
RMM:  13     -.248207816770E+02    -.12556E-02    -.99307E-04 16391    .918E-02     .535E-02                                     
RMM:  14     -.248213426077E+02    -.56093E-03    -.61749E-05 10466    .224E-02     .254E-02                                     
RMM:  15     -.248215756825E+02    -.23307E-03    -.39490E-05  9917    .189E-02     .928E-03                                     
RMM:  16     -.248215936285E+02    -.17946E-04    -.76287E-06  9535    .822E-03                                                  
    1 T=  3071. E= -.19661861E+02 F= -.24821594E+02 E0= -.24741705E+02  EK=  .51597E+01 SP=  .00E+00 SK=  .00E+00 mag=       .999
       N       E                     dE             d eps       ncg     rms          rms(c)                                      
DAV:   1     -.243661852368E+02     .45539E+00    -.15503E-01 17064    .153E-01     .301E-01                                     
RMM:   2     -.245058378685E+02    -.13965E+00    -.80870E-04 10833    .359E-02     .216E-01                                     
RMM:   3     -.248006006004E+02    -.29476E+00    -.13332E-03 11601    .414E-02     .221E-02                                     
RMM:   4     -.248173397465E+02    -.16739E-01    -.18826E-05  9030    .875E-03     .120E-02                                     
RMM:   5     -.248216741294E+02    -.43344E-02    -.21260E-05  6821    .590E-03     .213E-03                                     
RMM:   6     -.248213955478E+02     .27858E-03    -.48939E-06  4855    .405E-03     .588E-04                                     
RMM:   7     -.248217106821E+02    -.31513E-03    -.10380E-05  4270    .396E-03     .149E-04                                     
RMM:   8     -.248217065227E+02     .41594E-05    -.44885E-07  2661    .247E-03                                                  
    2 T=  3071. E= -.19661856E+02 F= -.24821707E+02 E0= -.24741817E+02  EK=  .51599E+01 SP=  .00E+00 SK=  .00E+00 mag=      1.000
       N       E                     dE             d eps       ncg     rms          rms(c)                                      
DAV:   1     -.247606060236E+02     .61105E-01    -.16369E+00 12496    .510E+00     .418E-02                                     
RMM:   2     -.247842516680E+02    -.23646E-01    -.83731E-02 11916    .212E-01     .273E-02                                     
RMM:   3     -.248153557294E+02    -.31104E-01    -.15587E-03 10843    .338E-02     .163E-02                                     
RMM:   4     -.248207564667E+02    -.54007E-02    -.15593E-04 10446    .166E-02     .396E-03                                     
RMM:   5     -.248211654306E+02    -.40896E-03    -.20285E-05  5600    .526E-03     .306E-03                                     
RMM:   6     -.248215543255E+02    -.38889E-03    -.19581E-05  6356    .555E-03     .140E-03                                     
RMM:   7     -.248217117761E+02    -.15745E-03    -.20524E-05  4988    .581E-03     .674E-04                                     
RMM:   8     -.248217859165E+02    -.74140E-04    -.90885E-07  3222    .275E-03     .328E-04                                     
RMM:   9     -.248218128074E+02    -.26891E-04    -.28050E-07  2295    .246E-03                                                  
    3 T=  3071. E= -.19661843E+02 F= -.24821813E+02 E0= -.24741924E+02  EK=  .51600E+01 SP=  .00E+00 SK=  .00E+00 mag=      1.000
       N       E                     dE             d eps       ncg     rms          rms(c)                                      
DAV:   1     -.248133627235E+02     .84232E-02    -.16315E+00 14336    .995E+00     .916E-03                                     
RMM:   2     -.248178338389E+02    -.44711E-02    -.10593E-02 12310    .999E-02     .436E-03                                     
RMM:   3     -.248195344050E+02    -.17006E-02    -.22971E-04  8320    .147E-02     .241E-03                                     
RMM:   4     -.248218210279E+02    -.22866E-02    -.26739E-05  7414    .770E-03     .515E-04                                     
RMM:   5     -.248219447522E+02    -.12372E-03    -.11967E-05  5647    .566E-03     .295E-04                                     
RMM:   6     -.248219435028E+02     .12495E-05    -.57943E-07  3043    .284E-03                                                  
    4 T=  3071. E= -.19661853E+02 F= -.24821944E+02 E0= -.24742055E+02  EK=  .51601E+01 SP=  .00E+00 SK=  .00E+00 mag=      1.000
       N       E                     dE             d eps       ncg     rms          rms(c)                                      
DAV:   1     -.248072658144E+02     .14679E-01    -.14797E+00 11952    .868E+00     .917E-03                                     
RMM:   2     -.248206488394E+02    -.13383E-01    -.71755E-02 11431    .114E-01     .261E-03                                     
RMM:   3     -.248213023214E+02    -.65348E-03    -.25144E-03  8293    .185E-02     .176E-03                                     
RMM:   4     -.248215095257E+02    -.20720E-03    -.82833E-05  4823    .615E-03     .128E-03                                     
RMM:   5     -.248219117531E+02    -.40223E-03    -.82374E-06  5007    .435E-03     .384E-04                                     
RMM:   6     -.248220262640E+02    -.11451E-03    -.12337E-06  3691    .341E-03     .195E-04                                     
RMM:   7     -.248220746359E+02    -.48372E-04    -.33184E-06  4040    .388E-03     .806E-05                                     
RMM:   8     -.248220745522E+02     .83644E-07    -.11748E-07  2163    .264E-03                                                  
    5 T=  3071. E= -.19661861E+02 F= -.24822075E+02 E0= -.24742187E+02  EK=  .51602E+01 SP=  .00E+00 SK=  .00E+00 mag=      1.000
       N       E                     dE             d eps       ncg     rms          rms(c)                                      
DAV:   1     -.248143564494E+02     .77182E-02    -.17787E+00 12088    .945E+00     .799E-03                                     
RMM:   2     -.248207362794E+02    -.63798E-02    -.33080E-03 11511    .554E-02     .270E-03                                     
RMM:   3     -.248215994158E+02    -.86314E-03    -.70729E-05  8358    .108E-02     .149E-03                                     
RMM:   4     -.248219344071E+02    -.33499E-03    -.76097E-06  5598    .520E-03     .968E-04                                     
RMM:   5     -.248220193557E+02    -.84949E-04    -.19000E-06  3899    .352E-03     .415E-04                                     
RMM:   6     -.248221241934E+02    -.10484E-03    -.46365E-06  4730    .434E-03     .183E-04                                     
RMM:   7     -.248221957062E+02    -.71513E-04    -.89632E-07  2821    .308E-03     .715E-05                                     
RMM:   8     -.248222021297E+02    -.64235E-05    -.17911E-07  2300    .278E-03                                                  
    6 T=  3071. E= -.19661864E+02 F= -.24822202E+02 E0= -.24742316E+02  EK=  .51603E+01 SP=  .00E+00 SK=  .00E+00 mag=      1.000
       N       E                     dE             d eps       ncg     rms          rms(c)                                      
DAV:   1     -.248146579559E+02     .75378E-02    -.17385E+00 11680    .870E+00     .808E-03                                     
RMM:   2     -.248214252564E+02    -.67673E-02    -.19107E-03 10720    .346E-02     .285E-03                                     
RMM:   3     -.248215128194E+02    -.87563E-04    -.49616E-05  8063    .824E-03     .172E-03                                     
RMM:   4     -.248220472129E+02    -.53439E-03    -.37594E-06  4849    .422E-03     .725E-04                                     
RMM:   5     -.248222751969E+02    -.22798E-03    -.30509E-06  5293    .451E-03     .300E-04                                     
RMM:   6     -.248222931525E+02    -.17956E-04    -.55395E-07  2951    .310E-03                                                  
    7 T=  3071. E= -.19661828E+02 F= -.24822293E+02 E0= -.24742407E+02  EK=  .51605E+01 SP=  .00E+00 SK=  .00E+00 mag=      1.000
       N       E                     dE             d eps       ncg     rms          rms(c)                                      
DAV:   1     -.248149216421E+02     .73536E-02    -.13700E+00 11272    .854E+00     .801E-03                                     
RMM:   2     -.248216607090E+02    -.67391E-02    -.31606E-04 11023    .271E-02     .294E-03                                     
RMM:   3     -.248220748481E+02    -.41414E-03    -.10515E-05  7875    .671E-03     .226E-03                                     
RMM:   4     -.248221638486E+02    -.89001E-04    -.13024E-06  4237    .354E-03     .156E-03                                     
RMM:   5     -.248224088334E+02    -.24498E-03    -.12822E-06  5214    .387E-03     .519E-04                                     
RMM:   6     -.248224379056E+02    -.29072E-04    -.32693E-07  2719    .283E-03                                                  
    8 T=  3071. E= -.19661846E+02 F= -.24822438E+02 E0= -.24742552E+02  EK=  .51606E+01 SP=  .00E+00 SK=  .00E+00 mag=      1.000
       N       E                     dE             d eps       ncg     rms          rms(c)                                      
DAV:   1     -.248149054566E+02     .75034E-02    -.20138E+00 11776    .810E+00     .806E-03                                     
RMM:   2     -.248218392432E+02    -.69338E-02    -.20201E-03 11349    .485E-02     .504E-03                                     
RMM:   3     -.248221848322E+02    -.34559E-03    -.31861E-05  9162    .889E-03     .325E-03                                     
RMM:   4     -.248223963307E+02    -.21150E-03    -.13453E-05  6093    .556E-03     .198E-03                                     
RMM:   5     -.248223832012E+02     .13129E-04    -.48537E-06  6371    .473E-03                                                  
    9 T=  3071. E= -.19661665E+02 F= -.24822383E+02 E0= -.24742498E+02  EK=  .51607E+01 SP=  .00E+00 SK=  .00E+00 mag=      1.000
       N       E                     dE             d eps       ncg     rms          rms(c)                                      
DAV:   1     -.248152129315E+02     .71834E-02    -.19897E+00 12048    .932E+00     .806E-03                                     
RMM:   2     -.248219496739E+02    -.67367E-02    -.37293E-04 11559    .310E-02     .189E-03                                     
RMM:   3     -.248223642039E+02    -.41453E-03    -.12086E-05  8132    .694E-03     .169E-03                                     
RMM:   4     -.248224580034E+02    -.93800E-04    -.22878E-06  4546    .392E-03     .141E-03                                     
RMM:   5     -.248225835328E+02    -.12553E-03    -.98059E-07  3746    .343E-03     .840E-04                                     
RMM:   6     -.248226938300E+02    -.11030E-03    -.82433E-06  5442    .460E-03     .260E-04                                     
RMM:   7     -.248227092468E+02    -.15417E-04    -.73204E-07  2548    .291E-03                                                  
   10 T=  3071. E= -.19661863E+02 F= -.24822709E+02 E0= -.24742824E+02  EK=  .51608E+01 SP=  .00E+00 SK=  .00E+00 mag=      1.000
       N       E                     dE             d eps       ncg     rms          rms(c)                                      
DAV:   1     -.248149600163E+02     .77338E-02    -.19140E+00 12080    .105E+01     .803E-03                                     
RMM:   2     -.248217428016E+02    -.67828E-02    -.33582E-03 11522    .459E-02     .147E-03                                     
RMM:   3     -.248224147313E+02    -.67193E-03    -.12661E-04  8011    .947E-03     .955E-04                                     
RMM:   4     -.248226685515E+02    -.25382E-03    -.69334E-06  5261    .471E-03     .532E-04                                     
RMM:   5     -.248228327100E+02    -.16416E-03    -.72160E-06  5316    .480E-03     .156E-04                                     
RMM:   6     -.248228410396E+02    -.83296E-05    -.67393E-07  3082    .304E-03                                                  
   11 T=  3071. E= -.19661861E+02 F= -.24822841E+02 E0= -.24742957E+02  EK=  .51610E+01 SP=  .00E+00 SK=  .00E+00 mag=      1.000
       N       E                     dE             d eps       ncg     rms          rms(c)                                      
DAV:   1     -.248149799723E+02     .78527E-02    -.99235E-01 12104    .866E+00     .796E-03                                     
RMM:   2     -.248222081289E+02    -.72282E-02    -.53410E-03 11320    .733E-02     .290E-03                                     
RMM:   3     -.248227217589E+02    -.51363E-03    -.70745E-05  9220    .114E-02     .902E-04                                     
RMM:   4     -.248228366938E+02    -.11493E-03    -.72694E-06  5209    .508E-03     .671E-04                                     
RMM:   5     -.248229233093E+02    -.86615E-04    -.32591E-06  4406    .360E-03     .293E-04                                     
RMM:   6     -.248229638997E+02    -.40590E-04    -.54501E-07  3256    .291E-03     .185E-04                                     
RMM:   7     -.248229685142E+02    -.46146E-05    -.35754E-07  2975    .284E-03                                                  
   12 T=  3071. E= -.19661855E+02 F= -.24822969E+02 E0= -.24743085E+02  EK=  .51611E+01 SP=  .00E+00 SK=  .00E+00 mag=      1.000
       N       E                     dE             d eps       ncg     rms          rms(c)                                      
DAV:   1     -.248155245252E+02     .74394E-02    -.13823E+00 11752    .833E+00     .791E-03                                     
RMM:   2     -.248222467151E+02    -.67222E-02    -.12244E-03 10829    .330E-02     .293E-03                                     
RMM:   3     -.248227329003E+02    -.48619E-03    -.27383E-05  8336    .776E-03     .149E-03                                     
RMM:   4     -.248229604602E+02    -.22756E-03    -.11544E-05  6538    .562E-03     .447E-04                                     
RMM:   5     -.248230503847E+02    -.89925E-04    -.11463E-06  3902    .334E-03     .192E-04                                     
RMM:   6     -.248231024756E+02    -.52091E-04    -.21783E-06  3800    .341E-03     .892E-05                                     
RMM:   7     -.248231069126E+02    -.44369E-05    -.29277E-07  2363    .263E-03                                                  
   13 T=  3071. E= -.19661857E+02 F= -.24823107E+02 E0= -.24743225E+02  EK=  .51613E+01 SP=  .00E+00 SK=  .00E+00 mag=      1.000
       N       E                     dE             d eps       ncg     rms          rms(c)                                      
DAV:   1     -.248148787184E+02     .82238E-02    -.16084E+00 12072    .870E+00     .821E-03                                     
RMM:   2     -.248223119369E+02    -.74332E-02    -.85461E-03 11058    .770E-02     .413E-03                                     
RMM:   3     -.248229416168E+02    -.62968E-03    -.14827E-04  9500    .127E-02     .149E-03                                     
RMM:   4     -.248230416025E+02    -.99986E-04    -.85689E-06  4769    .498E-03     .814E-04                                     
RMM:   5     -.248231630318E+02    -.12143E-03    -.24473E-06  4642    .379E-03     .359E-04                                     
RMM:   6     -.248232250450E+02    -.62013E-04    -.29184E-06  3912    .356E-03     .256E-04                                     
RMM:   7     -.248232413468E+02    -.16302E-04    -.23808E-06  4033    .343E-03                                                  
   14 T=  3072. E= -.19661853E+02 F= -.24823241E+02 E0= -.24743359E+02  EK=  .51614E+01 SP=  .00E+00 SK=  .00E+00 mag=      1.000
       N       E                     dE             d eps       ncg     rms          rms(c)                                      
DAV:   1     -.248153928991E+02     .78321E-02    -.20519E+00 11608    .929E+00     .794E-03                                     
RMM:   2     -.248226322043E+02    -.72393E-02    -.53954E-03 11406    .638E-02     .191E-03                                     
RMM:   3     -.248231292819E+02    -.49708E-03    -.79655E-05  8337    .105E-02     .110E-03                                     
RMM:   4     -.248232486338E+02    -.11935E-03    -.73401E-06  4889    .462E-03     .536E-04                                     
RMM:   5     -.248232950990E+02    -.46465E-04    -.10215E-06  3776    .341E-03     .325E-04                                     
RMM:   6     -.248233428901E+02    -.47791E-04    -.11225E-06  3328    .323E-03     .140E-04                                     
RMM:   7     -.248233766330E+02    -.33743E-04    -.21685E-06  4037    .369E-03     .753E-05                                     
RMM:   8     -.248233832152E+02    -.65823E-05    -.81972E-07  2837    .308E-03                                                  
   15 T=  3072. E= -.19661856E+02 F= -.24823383E+02 E0= -.24743502E+02  EK=  .51615E+01 SP=  .00E+00 SK=  .00E+00 mag=      1.000
       N       E                     dE             d eps       ncg     rms          rms(c)                                      
DAV:   1     -.248151676332E+02     .82090E-02    -.12145E+00 11584    .962E+00     .795E-03                                     
RMM:   2     -.248226105939E+02    -.74430E-02    -.86376E-03 11333    .588E-02     .453E-03                                     
RMM:   3     -.248229296243E+02    -.31903E-03    -.13496E-04  9260    .102E-02     .168E-03                                     
RMM:   4     -.248232299876E+02    -.30036E-03    -.12510E-05  4406    .396E-03     .112E-03                                     
RMM:   5     -.248235080451E+02    -.27806E-03    -.54457E-06  6214    .532E-03     .297E-04                                     
RMM:   6     -.248235097674E+02    -.17223E-05    -.41688E-07  2761    .293E-03                                                  
   16 T=  3072. E= -.19661842E+02 F= -.24823510E+02 E0= -.24743629E+02  EK=  .51617E+01 SP=  .00E+00 SK=  .00E+00 mag=      1.000
       N       E                     dE             d eps       ncg     rms          rms(c)                                      
DAV:   1     -.248150897803E+02     .84183E-02    -.21206E+00 11520    .939E+00     .798E-03                                     
RMM:   2     -.248227945887E+02    -.77048E-02    -.10363E-02 11015    .658E-02     .403E-03                                     
RMM:   3     -.248231510849E+02    -.35650E-03    -.17249E-04  8146    .109E-02     .306E-03                                     
RMM:   4     -.248233743952E+02    -.22331E-03    -.20104E-05  6804    .586E-03     .148E-03                                     
RMM:   5     -.248235757074E+02    -.20131E-03    -.93012E-06  7030    .537E-03     .422E-04                                     
RMM:   6     -.248236505609E+02    -.74854E-04    -.37488E-06  3795    .367E-03     .253E-04                                     
RMM:   7     -.248236550109E+02    -.44500E-05    -.44751E-07  2553    .248E-03                                                  
   17 T=  3072. E= -.19661847E+02 F= -.24823655E+02 E0= -.24743775E+02  EK=  .51618E+01 SP=  .00E+00 SK=  .00E+00 mag=      1.000
       N       E                     dE             d eps       ncg     rms          rms(c)                                      
DAV:   1     -.248129563447E+02     .10694E-01    -.12888E+00 12512    .794E+00     .809E-03                                     
RMM:   2     -.248229971646E+02    -.10041E-01    -.33226E-02 11316    .115E-01     .195E-03                                     
RMM:   3     -.248235769561E+02    -.57979E-03    -.63355E-04  8310    .173E-02     .159E-03                                     
RMM:   4     -.248236209578E+02    -.44002E-04    -.89856E-05  5161    .718E-03     .963E-04                                     
RMM:   5     -.248237480957E+02    -.12714E-03    -.67393E-06  5025    .438E-03     .285E-04                                     
RMM:   6     -.248238036973E+02    -.55602E-04    -.33672E-06  4067    .388E-03     .147E-04                                     
RMM:   7     -.248238086265E+02    -.49292E-05    -.92225E-07  2900    .298E-03                                                  
   18 T=  3072. E= -.19661859E+02 F= -.24823809E+02 E0= -.24743929E+02  EK=  .51619E+01 SP=  .00E+00 SK=  .00E+00 mag=      1.000
       N       E                     dE             d eps       ncg     rms          rms(c)                                      
DAV:   1     -.248147003861E+02     .91033E-02    -.13204E+00 12392    .771E+00     .807E-03                                     
RMM:   2     -.248231309819E+02    -.84306E-02    -.17813E-02 11097    .922E-02     .268E-03                                     
RMM:   3     -.248236998417E+02    -.56886E-03    -.34104E-04  8675    .144E-02     .130E-03                                     
RMM:   4     -.248238229494E+02    -.12311E-03    -.39537E-05  4174    .566E-03     .703E-04                                     
RMM:   5     -.248239021857E+02    -.79236E-04    -.81693E-06  4317    .428E-03     .435E-04                                     
RMM:   6     -.248239455576E+02    -.43372E-04    -.24964E-06  3952    .381E-03     .138E-04                                     
RMM:   7     -.248239483365E+02    -.27788E-05    -.47728E-07  2814    .303E-03                                                  
   19 T=  3072. E= -.19661855E+02 F= -.24823948E+02 E0= -.24744069E+02  EK=  .51621E+01 SP=  .00E+00 SK=  .00E+00 mag=      1.000
       N       E                     dE             d eps       ncg     rms          rms(c)                                      
DAV:   1     -.248144398280E+02     .95057E-02    -.19151E+00 11832    .856E+00     .812E-03                                     
RMM:   2     -.248231771834E+02    -.87374E-02    -.21187E-02 10876    .975E-02     .232E-03                                     
RMM:   3     -.248238571075E+02    -.67992E-03    -.30358E-04  7345    .139E-02     .122E-03                                     
RMM:   4     -.248238765484E+02    -.19441E-04    -.29949E-05  5383    .655E-03                                                  
   20 T=  3072. E= -.19661638E+02 F= -.24823877E+02 E0= -.24743999E+02  EK=  .51622E+01 SP=  .00E+00 SK=  .00E+00 mag=      1.000
       N       E                     dE             d eps       ncg     rms          rms(c)                                      
DAV:   1     -.248163565129E+02     .75006E-02    -.13236E+00 11760    .843E+00     .810E-03                                     
RMM:   2     -.248227197630E+02    -.63633E-02    -.21158E-04 10842    .273E-02     .355E-03                                     
RMM:   3     -.248234317826E+02    -.71202E-03    -.13261E-05  8969    .739E-03     .163E-03                                     
RMM:   4     -.248238613973E+02    -.42961E-03    -.47489E-06  5304    .490E-03     .906E-04                                     
RMM:   5     -.248240701786E+02    -.20878E-03    -.35759E-06  5075    .431E-03     .465E-04                                     
RMM:   6     -.248241619412E+02    -.91763E-04    -.25285E-06  4502    .391E-03     .273E-04                                     
RMM:   7     -.248242193443E+02    -.57403E-04    -.60478E-06  4650    .428E-03     .107E-04                                     
RMM:   8     -.248242273291E+02    -.79849E-05    -.17931E-06  3321    .325E-03                                                  
   21 T=  3072. E= -.19661842E+02 F= -.24824227E+02 E0= -.24744350E+02  EK=  .51624E+01 SP=  .00E+00 SK=  .00E+00 mag=      1.000
       N       E                     dE             d eps       ncg     rms          rms(c)                                      
DAV:   1     -.248172677360E+02     .69516E-02    -.20828E+00 12608    .855E+00     .773E-03                                     
RMM:   2     -.248236180857E+02    -.63503E-02    -.91832E-04 11469    .396E-02     .226E-03                                     
RMM:   3     -.248241156852E+02    -.49760E-03    -.23735E-05  7899    .919E-03     .141E-03                                     
RMM:   4     -.248241689491E+02    -.53264E-04    -.65715E-06  6178    .524E-03     .667E-04                                     
RMM:   5     -.248243238120E+02    -.15486E-03    -.38950E-06  4437    .422E-03     .297E-04                                     
RMM:   6     -.248243715748E+02    -.47763E-04    -.53743E-06  4403    .414E-03     .208E-04                                     
RMM:   7     -.248243729975E+02    -.14227E-05    -.30898E-07  2387    .268E-03                                                  
   22 T=  3072. E= -.19661840E+02 F= -.24824373E+02 E0= -.24744496E+02  EK=  .51625E+01 SP=  .00E+00 SK=  .00E+00 mag=      1.000
       N       E                     dE             d eps       ncg     rms          rms(c)                                      
DAV:   1     -.248136763264E+02     .10695E-01    -.14495E+00 12632    .891E+00     .902E-03                                     
RMM:   2     -.248237656464E+02    -.10089E-01    -.31684E-02 11415    .127E-01     .288E-03                                     
RMM:   3     -.248240791097E+02    -.31346E-03    -.38568E-04  8686    .174E-02     .164E-03                                     
RMM:   4     -.248242128985E+02    -.13379E-03    -.26663E-05  5835    .645E-03     .109E-03                                     
RMM:   5     -.248244278373E+02    -.21494E-03    -.41881E-06  4668    .428E-03     .589E-04                                     
RMM:   6     -.248245093007E+02    -.81463E-04    -.10522E-05  5487    .547E-03     .217E-04                                     
RMM:   7     -.248245198390E+02    -.10538E-04    -.24934E-06  3298    .341E-03                                                  
   23 T=  3072. E= -.19661839E+02 F= -.24824520E+02 E0= -.24744644E+02  EK=  .51627E+01 SP=  .00E+00 SK=  .00E+00 mag=      1.000
       N       E                     dE             d eps       ncg     rms          rms(c)                                      
DAV:   1     -.248169770946E+02     .75322E-02    -.16943E+00 12096    .911E+00     .788E-03                                     
RMM:   2     -.248238448867E+02    -.68678E-02    -.24218E-03 11464    .496E-02     .303E-03                                     
RMM:   3     -.248243450025E+02    -.50012E-03    -.60194E-05  7757    .101E-02     .180E-03                                     
RMM:   4     -.248245813174E+02    -.23631E-03    -.15303E-05  5574    .599E-03     .850E-04                                     
RMM:   5     -.248246539965E+02    -.72679E-04    -.30949E-06  4664    .454E-03     .388E-04                                     
RMM:   6     -.248246690310E+02    -.15035E-04    -.15501E-06  3881    .373E-03                                                  
   24 T=  3072. E= -.19661838E+02 F= -.24824669E+02 E0= -.24744794E+02  EK=  .51628E+01 SP=  .00E+00 SK=  .00E+00 mag=      1.000
       N       E                     dE             d eps       ncg     rms          rms(c)                                      
DAV:   1     -.248171866385E+02     .74674E-02    -.20679E+00 12080    .973E+00     .782E-03                                     
RMM:   2     -.248241078109E+02    -.69212E-02    -.19139E-03 11429    .436E-02     .310E-03                                     
RMM:   3     -.248244955335E+02    -.38772E-03    -.38215E-05  8119    .892E-03     .206E-03                                     
RMM:   4     -.248245965456E+02    -.10101E-03    -.52707E-06  6012    .488E-03     .101E-03                                     
RMM:   5     -.248247217557E+02    -.12521E-03    -.45368E-06  5417    .483E-03     .360E-04                                     
RMM:   6     -.248247720101E+02    -.50254E-04    -.10777E-06  3802    .322E-03     .231E-04                                     
RMM:   7     -.248248024967E+02    -.30487E-04    -.20989E-06  3739    .347E-03     .100E-04                                     
RMM:   8     -.248248156726E+02    -.13176E-04    -.31099E-06  3774    .359E-03                                                  
   25 T=  3072. E= -.19661835E+02 F= -.24824816E+02 E0= -.24744941E+02  EK=  .51630E+01 SP=  .00E+00 SK=  .00E+00 mag=      1.000
       N       E                     dE             d eps       ncg     rms          rms(c)                                      
DAV:   1     -.248160834567E+02     .87190E-02    -.18364E+00 12000    .102E+01     .799E-03                                     
RMM:   2     -.248242060149E+02    -.81226E-02    -.14556E-02 11803    .941E-02     .265E-03                                     
RMM:   3     -.248246669415E+02    -.46093E-03    -.19462E-04  8268    .131E-02     .133E-03                                     
RMM:   4     -.248248057661E+02    -.13882E-03    -.22066E-05  5540    .597E-03     .651E-04                                     
RMM:   5     -.248248961840E+02    -.90418E-04    -.42386E-06  4090    .372E-03     .275E-04                                     
RMM:   6     -.248249581877E+02    -.62004E-04    -.57029E-06  4889    .454E-03     .126E-04                                     
RMM:   7     -.248249711032E+02    -.12916E-04    -.27093E-06  3773    .376E-03                                                  
   26 T=  3073. E= -.19661839E+02 F= -.24824971E+02 E0= -.24745097E+02  EK=  .51631E+01 SP=  .00E+00 SK=  .00E+00 mag=      1.000
       N       E                     dE             d eps       ncg     rms          rms(c)                                      
DAV:   1     -.248172153520E+02     .77428E-02    -.88272E-01 12296    .907E+00     .781E-03                                     
RMM:   2     -.248243567025E+02    -.71414E-02    -.46910E-03 11285    .592E-02     .178E-03                                     
RMM:   3     -.248249521801E+02    -.59548E-03    -.92516E-05  8206    .107E-02     .903E-04                                     
RMM:   4     -.248250197080E+02    -.67528E-04    -.10157E-05  5355    .531E-03     .573E-04                                     
RMM:   5     -.248251014891E+02    -.81781E-04    -.36334E-06  4331    .414E-03     .250E-04                                     
RMM:   6     -.248251226691E+02    -.21180E-04    -.73244E-06  4742    .466E-03                                                  
   27 T=  3073. E= -.19661839E+02 F= -.24825123E+02 E0= -.24745249E+02  EK=  .51633E+01 SP=  .00E+00 SK=  .00E+00 mag=      1.000
       N       E                     dE             d eps       ncg     rms          rms(c)                                      
DAV:   1     -.248145951786E+02     .10506E-01    -.14490E+00 12264    .903E+00     .855E-03                                     
RMM:   2     -.248245430917E+02    -.99479E-02    -.32052E-02 11223    .112E-01     .266E-03                                     
RMM:   3     -.248251710588E+02    -.62797E-03    -.49479E-04  9182    .169E-02     .113E-03                                     
RMM:   4     -.248251598133E+02     .11245E-04    -.32454E-05  5278    .728E-03                                                  
   28 T=  3073. E= -.19661724E+02 F= -.24825160E+02 E0= -.24745287E+02  EK=  .51634E+01 SP=  .00E+00 SK=  .00E+00 mag=      1.000
       N       E                     dE             d eps       ncg     rms          rms(c)                                      
DAV:   1     -.248152855919E+02     .98855E-02    -.57239E-01 13000    .874E+00     .933E-03                                     
RMM:   2     -.248245640093E+02    -.92784E-02    -.26512E-02 11882    .116E-01     .424E-03                                     
RMM:   3     -.248250943511E+02    -.53034E-03    -.33213E-04  9414    .148E-02     .190E-03                                     
RMM:   4     -.248252495292E+02    -.15518E-03    -.20367E-05  4688    .536E-03     .137E-03                                     
RMM:   5     -.248254160510E+02    -.16652E-03    -.11209E-05  6055    .670E-03     .386E-04                                     
RMM:   6     -.248254240477E+02    -.79967E-05    -.12667E-06  3671    .350E-03                                                  
   29 T=  3073. E= -.19661837E+02 F= -.24825424E+02 E0= -.24745552E+02  EK=  .51636E+01 SP=  .00E+00 SK=  .00E+00 mag=      1.000
       N       E                     dE             d eps       ncg     rms          rms(c)                                      
DAV:   1     -.248180318680E+02     .73842E-02    -.18632E+00 12176    .912E+00     .799E-03                                     
RMM:   2     -.248245328754E+02    -.65010E-02    -.17713E-03 11504    .489E-02     .271E-03                                     
RMM:   3     -.248253191727E+02    -.78630E-03    -.48309E-05  7737    .109E-02     .170E-03                                     
RMM:   4     -.248254304857E+02    -.11131E-03    -.27557E-06  4723    .441E-03     .138E-03                                     
RMM:   5     -.248255116064E+02    -.81121E-04    -.52234E-06  4966    .535E-03     .840E-04                                     
RMM:   6     -.248255335234E+02    -.21917E-04    -.11133E-06  3314    .322E-03                                                  
   30 T=  3073. E= -.19661794E+02 F= -.24825534E+02 E0= -.24745662E+02  EK=  .51637E+01 SP=  .00E+00 SK=  .00E+00 mag=      1.000
       N       E                     dE             d eps       ncg     rms          rms(c)                                      
DAV:   1     -.248167464560E+02     .87652E-02    -.22990E+00 12584    .104E+01     .804E-03                                     
RMM:   2     -.248249748627E+02    -.82284E-02    -.14952E-02 11474    .105E-01     .401E-03                                     
RMM:   3     -.248254643913E+02    -.48953E-03    -.23186E-04  9261    .153E-02     .197E-03                                     
RMM:   4     -.248255571364E+02    -.92745E-04    -.25192E-05  5171    .607E-03     .124E-03                                     
RMM:   5     -.248256523651E+02    -.95229E-04    -.45027E-06  5113    .449E-03     .616E-04                                     
RMM:   6     -.248256878852E+02    -.35520E-04    -.45928E-06  4818    .446E-03     .285E-04                                     
RMM:   7     -.248257184066E+02    -.30521E-04    -.31175E-06  4046    .441E-03     .197E-04                                     
RMM:   8     -.248257277766E+02    -.93701E-05    -.17832E-06  3532    .347E-03                                                  
   31 T=  3073. E= -.19661835E+02 F= -.24825728E+02 E0= -.24745857E+02  EK=  .51639E+01 SP=  .00E+00 SK=  .00E+00 mag=      1.000
       N       E                     dE             d eps       ncg     rms          rms(c)                                      
DAV:   1     -.248183450280E+02     .73734E-02    -.98590E-01 13152    .902E+00     .784E-03                                     
RMM:   2     -.248251864473E+02    -.68414E-02    -.26357E-03 11972    .538E-02     .407E-03                                     
RMM:   3     -.248255997399E+02    -.41329E-03    -.47719E-05  9063    .119E-02     .272E-03                                     
RMM:   4     -.248257454602E+02    -.14572E-03    -.81874E-06  7026    .583E-03     .858E-04                                     
RMM:   5     -.248258488807E+02    -.10342E-03    -.41371E-06  4723    .489E-03     .433E-04                                     
RMM:   6     -.248258809357E+02    -.32055E-04    -.58252E-06  5230    .533E-03     .164E-04                                     
RMM:   7     -.248258798758E+02     .10599E-05    -.52997E-07  2652    .281E-03                                                  
   32 T=  3073. E= -.19661834E+02 F= -.24825880E+02 E0= -.24746010E+02  EK=  .51640E+01 SP=  .00E+00 SK=  .00E+00 mag=       .999
       N       E                     dE             d eps       ncg     rms          rms(c)                                      
DAV:   1     -.248185984726E+02     .72825E-02    -.20863E+00 11944    .976E+00     .786E-03                                     
RMM:   2     -.248253039924E+02    -.67055E-02    -.46475E-04 11583    .368E-02     .486E-03                                     
RMM:   3     -.248256916262E+02    -.38763E-03    -.19205E-05  9333    .105E-02     .238E-03                                     
RMM:   4     -.248258497901E+02    -.15816E-03    -.73132E-06  5400    .472E-03     .147E-03                                     
RMM:   5     -.248259851672E+02    -.13538E-03    -.20604E-05  6886    .708E-03     .659E-04                                     
RMM:   6     -.248260243599E+02    -.39193E-04    -.75782E-06  4219    .507E-03     .488E-04                                     
RMM:   7     -.248260291565E+02    -.47966E-05    -.75637E-07  3142    .291E-03                                                  
   33 T=  3073. E= -.19661832E+02 F= -.24826029E+02 E0= -.24746160E+02  EK=  .51642E+01 SP=  .00E+00 SK=  .00E+00 mag=       .999
       N       E                     dE             d eps       ncg     rms          rms(c)                                      
DAV:   1     -.248180429662E+02     .79814E-02    -.10139E+00 14216    .955E+00     .793E-03                                     
RMM:   2     -.248255639319E+02    -.75210E-02    -.89665E-03 12347    .925E-02     .770E-03                                     
RMM:   3     -.248259797829E+02    -.41585E-03    -.14969E-04  9450    .165E-02     .463E-03                                     
RMM:   4     -.248260656769E+02    -.85894E-04    -.16817E-05  7294    .746E-03     .220E-03                                     
RMM:   5     -.248261027569E+02    -.37080E-04    -.14337E-06  3607    .333E-03     .137E-03                                     
RMM:   6     -.248261733449E+02    -.70588E-04    -.13739E-05  7163    .666E-03     .260E-04                                     
RMM:   7     -.248261760630E+02    -.27181E-05    -.25695E-06  3140    .314E-03                                                  
   34 T=  3073. E= -.19661825E+02 F= -.24826176E+02 E0= -.24746307E+02  EK=  .51644E+01 SP=  .00E+00 SK=  .00E+00 mag=       .999
       N       E                     dE             d eps       ncg     rms          rms(c)                                      
DAV:   1     -.248183226433E+02     .78507E-02    -.10064E+00 12200    .952E+00     .790E-03                                     
RMM:   2     -.248254387218E+02    -.71161E-02    -.50291E-03 11859    .556E-02     .313E-03                                     
RMM:   3     -.248260690679E+02    -.63035E-03    -.62007E-05  8581    .101E-02     .183E-03                                     
RMM:   4     -.248262620585E+02    -.19299E-03    -.19577E-05  6271    .682E-03     .681E-04                                     
RMM:   5     -.248263295946E+02    -.67536E-04    -.16703E-05  5770    .704E-03     .342E-04                                     
RMM:   6     -.248263350717E+02    -.54771E-05    -.73185E-06  4286    .474E-03                                                  
   35 T=  3073. E= -.19661829E+02 F= -.24826335E+02 E0= -.24746467E+02  EK=  .51645E+01 SP=  .00E+00 SK=  .00E+00 mag=       .999
       N       E                     dE             d eps       ncg     rms          rms(c)                                      
DAV:   1     -.248181774169E+02     .81522E-02    -.21516E+00 13368    .983E+00     .802E-03                                     
RMM:   2     -.248258509306E+02    -.76735E-02    -.11070E-02 12260    .785E-02     .206E-03                                     
RMM:   3     -.248263098413E+02    -.45891E-03    -.13038E-04  8855    .140E-02     .159E-03                                     
RMM:   4     -.248264099942E+02    -.10015E-03    -.10411E-05  5332    .570E-03     .710E-04                                     
RMM:   5     -.248264820461E+02    -.72052E-04    -.15253E-05  5797    .746E-03     .381E-04                                     
RMM:   6     -.248264876380E+02    -.55919E-05    -.20779E-06  3515    .372E-03                                                  
   36 T=  3073. E= -.19661828E+02 F= -.24826488E+02 E0= -.24746620E+02  EK=  .51647E+01 SP=  .00E+00 SK=  .00E+00 mag=       .999
       N       E                     dE             d eps       ncg     rms          rms(c)                                      
DAV:   1     -.248190718418E+02     .74102E-02    -.66223E-01 13264    .848E+00     .786E-03                                     
RMM:   2     -.248260497272E+02    -.69779E-02    -.28386E-03 11776    .502E-02     .185E-03                                     
RMM:   3     -.248265644889E+02    -.51476E-03    -.66427E-05  7885    .103E-02     .108E-03                                     
RMM:   4     -.248266076728E+02    -.43184E-04    -.11976E-05  5984    .727E-03     .619E-04                                     
RMM:   5     -.248266253676E+02    -.17695E-04    -.17561E-06  3622    .379E-03                                                  
   37 T=  3074. E= -.19661812E+02 F= -.24826625E+02 E0= -.24746759E+02  EK=  .51648E+01 SP=  .00E+00 SK=  .00E+00 mag=       .999
       N       E                     dE             d eps       ncg     rms          rms(c)                                      
DAV:   1     -.248193828423E+02     .72248E-02    -.20966E+00 12488    .875E+00     .786E-03                                     
RMM:   2     -.248260367382E+02    -.66539E-02    -.55036E-04 11599    .350E-02     .140E-03                                     
RMM:   3     -.248265295458E+02    -.49281E-03    -.18854E-05  7991    .832E-03     .953E-04                                     
RMM:   4     -.248266902757E+02    -.16073E-03    -.13937E-05  5709    .591E-03     .422E-04                                     
RMM:   5     -.248267736055E+02    -.83330E-04    -.19836E-05  5823    .715E-03     .179E-04                                     
RMM:   6     -.248267876437E+02    -.14038E-04    -.18525E-05  5171    .693E-03                                                  
   38 T=  3074. E= -.19661822E+02 F= -.24826788E+02 E0= -.24746922E+02  EK=  .51650E+01 SP=  .00E+00 SK=  .00E+00 mag=       .999
       N       E                     dE             d eps       ncg     rms          rms(c)                                      
DAV:   1     -.248162538819E+02     .10520E-01    -.16223E+00 14200    .915E+00     .826E-03                                     
RMM:   2     -.248261761392E+02    -.99223E-02    -.34719E-02 12673    .171E-01     .204E-03                                     
RMM:   3     -.248267865863E+02    -.61045E-03    -.45643E-04  9044    .235E-02     .101E-03                                     
RMM:   4     -.248268799207E+02    -.93334E-04    -.36474E-05  6149    .811E-03     .661E-04                                     
RMM:   5     -.248269396707E+02    -.59750E-04    -.15412E-05  5736    .693E-03     .297E-04                                     
RMM:   6     -.248269422754E+02    -.26047E-05    -.88764E-06  4822    .563E-03                                                  
   39 T=  3074. E= -.19661823E+02 F= -.24826942E+02 E0= -.24747077E+02  EK=  .51651E+01 SP=  .00E+00 SK=  .00E+00 mag=       .999
       N       E                     dE             d eps       ncg     rms          rms(c)                                      
DAV:   1     -.248193619959E+02     .75777E-02    -.14907E+00 13528    .799E+00     .786E-03                                     
RMM:   2     -.248265126776E+02    -.71507E-02    -.58381E-03 11889    .715E-02     .208E-03                                     
RMM:   3     -.248270112827E+02    -.49861E-03    -.11181E-04  8265    .125E-02     .115E-03                                     
RMM:   4     -.248270656986E+02    -.54416E-04    -.10617E-05  5375    .603E-03     .580E-04                                     
RMM:   5     -.248270842438E+02    -.18545E-04    -.60842E-06  4776    .535E-03                                                  
   40 T=  3074. E= -.19661814E+02 F= -.24827084E+02 E0= -.24747220E+02  EK=  .51653E+01 SP=  .00E+00 SK=  .00E+00 mag=       .999
       N       E                     dE             d eps       ncg     rms          rms(c)                                      
DAV:   1     -.248183943440E+02     .86714E-02    -.22631E+00 13568    .925E+00     .801E-03                                     
RMM:   2     -.248266165139E+02    -.82222E-02    -.15973E-02 11877    .115E-01     .199E-03                                     
RMM:   3     -.248270665969E+02    -.45008E-03    -.22706E-04  8713    .177E-02     .112E-03                                     
RMM:   4     -.248271103947E+02    -.43798E-04    -.20433E-05  5845    .746E-03     .853E-04                                     
RMM:   5     -.248271725882E+02    -.62193E-04    -.67468E-06  4669    .471E-03     .527E-04                                     
RMM:   6     -.248272320647E+02    -.59476E-04    -.26542E-05  5773    .808E-03     .272E-04                                     
RMM:   7     -.248272386969E+02    -.66323E-05    -.12109E-05  4743    .607E-03                                                  
   41 T=  3074. E= -.19661817E+02 F= -.24827239E+02 E0= -.24747375E+02  EK=  .51654E+01 SP=  .00E+00 SK=  .00E+00 mag=       .999
       N       E                     dE             d eps       ncg     rms          rms(c)                                      
DAV:   1     -.248198359364E+02     .73961E-02    -.18949E+00 13560    .897E+00     .788E-03                                     
RMM:   2     -.248266558962E+02    -.68200E-02    -.46246E-03 12278    .712E-02     .215E-03                                     
RMM:   3     -.248272614885E+02    -.60559E-03    -.84874E-05  8174    .118E-02     .114E-03                                     
RMM:   4     -.248273499893E+02    -.88501E-04    -.81524E-06  5174    .561E-03     .654E-04                                     
RMM:   5     -.248273775551E+02    -.27566E-04    -.84588E-06  5035    .525E-03                                                  
   42 T=  3074. E= -.19661805E+02 F= -.24827378E+02 E0= -.24747514E+02  EK=  .51656E+01 SP=  .00E+00 SK=  .00E+00 mag=       .998
       N       E                     dE             d eps       ncg     rms          rms(c)                                      
DAV:   1     -.248194887199E+02     .78613E-02    -.12773E+00 13504    .848E+00     .791E-03                                     
RMM:   2     -.248269882908E+02    -.74996E-02    -.94884E-03 11902    .709E-02     .199E-03                                     
RMM:   3     -.248274161272E+02    -.42784E-03    -.11674E-04  8610    .133E-02     .996E-04                                     
RMM:   4     -.248274851623E+02    -.69035E-04    -.30421E-05  6134    .737E-03     .593E-04                                     
RMM:   5     -.248275228763E+02    -.37714E-04    -.37731E-05  6155    .912E-03     .287E-04                                     
RMM:   6     -.248275377461E+02    -.14870E-04    -.36977E-06  4311    .479E-03                                                  
   43 T=  3074. E= -.19661815E+02 F= -.24827538E+02 E0= -.24747675E+02  EK=  .51657E+01 SP=  .00E+00 SK=  .00E+00 mag=       .998
       N       E                     dE             d eps       ncg     rms          rms(c)                                      
DAV:   1     -.248194052224E+02     .81177E-02    -.19649E+00 13624    .821E+00     .789E-03                                     
RMM:   2     -.248272076423E+02    -.78024E-02    -.13502E-02 11972    .929E-02     .173E-03                                     
RMM:   3     -.248275492953E+02    -.34165E-03    -.18511E-04  8433    .175E-02     .895E-04                                     
RMM:   4     -.248275870341E+02    -.37739E-04    -.15352E-05  5560    .613E-03     .596E-04                                     
RMM:   5     -.248276274738E+02    -.40440E-04    -.87833E-06  5254    .546E-03     .295E-04                                     
RMM:   6     -.248276620476E+02    -.34574E-04    -.21367E-05  5584    .816E-03     .164E-04                                     
RMM:   7     -.248276741156E+02    -.12068E-04    -.29668E-06  3681    .410E-03                                                  
   44 T=  3074. E= -.19661803E+02 F= -.24827674E+02 E0= -.24747812E+02  EK=  .51659E+01 SP=  .00E+00 SK=  .00E+00 mag=       .998
       N       E                     dE             d eps       ncg     rms          rms(c)                                      
DAV:   1     -.248184626596E+02     .91994E-02    -.94752E-01 14168    .757E+00     .806E-03                                     
RMM:   2     -.248271285589E+02    -.86659E-02    -.22174E-02 12135    .122E-01     .190E-03                                     
RMM:   3     -.248277152017E+02    -.58664E-03    -.41314E-04  8195    .182E-02     .968E-04                                     
RMM:   4     -.248278057922E+02    -.90591E-04    -.44315E-05  5385    .735E-03     .690E-04                                     
RMM:   5     -.248278177505E+02    -.11958E-04    -.57302E-06  4446    .434E-03                                                  
   45 T=  3074. E= -.19661798E+02 F= -.24827818E+02 E0= -.24747956E+02  EK=  .51660E+01 SP=  .00E+00 SK=  .00E+00 mag=       .998
       N       E                     dE             d eps       ncg     rms          rms(c)                                      
DAV:   1     -.248206910104E+02     .71148E-02    -.11889E+00 13944    .824E+00     .789E-03                                     
RMM:   2     -.248275666670E+02    -.68757E-02    -.44706E-03 12689    .725E-02     .180E-03                                     
RMM:   3     -.248278777115E+02    -.31104E-03    -.83839E-05  8508    .129E-02     .119E-03                                     
RMM:   4     -.248279426013E+02    -.64890E-04    -.95490E-06  5540    .572E-03     .695E-04                                     
RMM:   5     -.248279747069E+02    -.32106E-04    -.14400E-05  5684    .716E-03     .344E-04                                     
RMM:   6     -.248279751456E+02    -.43869E-06    -.13697E-06  3284    .356E-03                                                  
   46 T=  3074. E= -.19661809E+02 F= -.24827975E+02 E0= -.24748114E+02  EK=  .51662E+01 SP=  .00E+00 SK=  .00E+00 mag=       .998
       N       E                     dE             d eps       ncg     rms          rms(c)                                      
DAV:   1     -.248196209832E+02     .83537E-02    -.10232E+00 13496    .866E+00     .805E-03                                     
RMM:   2     -.248276185615E+02    -.79976E-02    -.17018E-02 12354    .886E-02     .195E-03                                     
RMM:   3     -.248279724925E+02    -.35393E-03    -.34855E-04  8749    .185E-02     .127E-03                                     
RMM:   4     -.248279937055E+02    -.21213E-04    -.12052E-05  4934    .502E-03                                                  
   47 T=  3074. E= -.19661683E+02 F= -.24827994E+02 E0= -.24748133E+02  EK=  .51663E+01 SP=  .00E+00 SK=  .00E+00 mag=       .997
       N       E                     dE             d eps       ncg     rms          rms(c)                                      
DAV:   1     -.248212686822E+02     .67038E-02    -.19429E+00 13768    .899E+00     .789E-03                                     
RMM:   2     -.248277147801E+02    -.64461E-02    -.16875E-03 12356    .536E-02     .192E-03                                     
RMM:   3     -.248281283084E+02    -.41353E-03    -.39211E-05  8180    .106E-02     .110E-03                                     
RMM:   4     -.248282283230E+02    -.10001E-03    -.28531E-05  6412    .833E-03     .428E-04                                     
RMM:   5     -.248282468448E+02    -.18522E-04    -.15033E-05  5357    .621E-03                                                  
   48 T=  3075. E= -.19661792E+02 F= -.24828247E+02 E0= -.24748387E+02  EK=  .51665E+01 SP=  .00E+00 SK=  .00E+00 mag=       .997
       N       E                     dE             d eps       ncg     rms          rms(c)                                      
DAV:   1     -.248181190800E+02     .10109E-01    -.16126E+00 13952    .810E+00     .815E-03                                     
RMM:   2     -.248277673700E+02    -.96483E-02    -.32620E-02 12117    .140E-01     .234E-03                                     
RMM:   3     -.248282093141E+02    -.44194E-03    -.48182E-04  9091    .217E-02     .151E-03                                     
RMM:   4     -.248282956473E+02    -.86333E-04    -.66631E-05  6630    .910E-03     .849E-04                                     
RMM:   5     -.248283736978E+02    -.78050E-04    -.85515E-05  6846    .120E-02     .408E-04                                     
RMM:   6     -.248283905693E+02    -.16872E-04    -.72626E-06  4986    .508E-03                                                  
   49 T=  3075. E= -.19661792E+02 F= -.24828391E+02 E0= -.24748532E+02  EK=  .51666E+01 SP=  .00E+00 SK=  .00E+00 mag=       .997
       N       E                     dE             d eps       ncg     rms          rms(c)                                      
DAV:   1     -.248211601207E+02     .72136E-02    -.80458E-01 13968    .703E+00     .792E-03                                     
RMM:   2     -.248281258803E+02    -.69658E-02    -.96797E-03 12337    .824E-02     .206E-03                                     
RMM:   3     -.248285090243E+02    -.38314E-03    -.35771E-04  8322    .169E-02     .115E-03                                     
RMM:   4     -.248285307741E+02    -.21750E-04    -.17043E-05  5494    .588E-03                                                  
   50 T=  3075. E= -.19661789E+02 F= -.24828531E+02 E0= -.24748672E+02  EK=  .51667E+01 SP=  .00E+00 SK=  .00E+00 mag=       .997
       N       E                     dE             d eps       ncg     rms          rms(c)                                      
DAV:   1     -.248205037065E+02     .80053E-02    -.28896E+00 14032    .933E+00     .828E-03                                     
RMM:   2     -.248283921275E+02    -.78884E-02    -.19816E-02 12564    .109E-01     .227E-03                                     
RMM:   3     -.248285870937E+02    -.19497E-03    -.35590E-04  8805    .172E-02     .122E-03                                     
RMM:   4     -.248286371902E+02    -.50096E-04    -.55112E-05  6800    .102E-02     .884E-04                                     
RMM:   5     -.248286532533E+02    -.16063E-04    -.17413E-06  4330    .373E-03                                                  
   51 T=  3075. E= -.19661769E+02 F= -.24828653E+02 E0= -.24748795E+02  EK=  .51669E+01 SP=  .00E+00 SK=  .00E+00 mag=       .996
       N       E                     dE             d eps       ncg     rms          rms(c)                                      
DAV:   1     -.248198748545E+02     .87623E-02    -.37082E+00 14736    .102E+01     .825E-03                                     
RMM:   2     -.248284223960E+02    -.85475E-02    -.22359E-02 12880    .142E-01     .196E-03                                     
RMM:   3     -.248287444107E+02    -.32201E-03    -.41616E-04  8998    .228E-02     .108E-03                                     
RMM:   4     -.248287961382E+02    -.51727E-04    -.31378E-05  6475    .848E-03     .662E-04                                     
RMM:   5     -.248288081422E+02    -.12004E-04    -.39754E-06  5067    .478E-03                                                  
   52 T=  3075. E= -.19661784E+02 F= -.24828808E+02 E0= -.24748951E+02  EK=  .51670E+01 SP=  .00E+00 SK=  .00E+00 mag=       .996
       N       E                     dE             d eps       ncg     rms          rms(c)                                      
DAV:   1     -.248219647605E+02     .68314E-02    -.13559E+00 14576    .906E+00     .796E-03                                     
RMM:   2     -.248284474816E+02    -.64827E-02    -.80117E-03 12949    .100E-01     .241E-03                                     
RMM:   3     -.248288773844E+02    -.42990E-03    -.15833E-04  8854    .177E-02     .123E-03                                     
RMM:   4     -.248289321372E+02    -.54753E-04    -.20047E-05  5750    .706E-03     .822E-04                                     
RMM:   5     -.248289291182E+02     .30189E-05    -.41169E-06  4421    .420E-03                                                  
   53 T=  3075. E= -.19661767E+02 F= -.24828929E+02 E0= -.24749072E+02  EK=  .51672E+01 SP=  .00E+00 SK=  .00E+00 mag=       .996
       N       E                     dE             d eps       ncg     rms          rms(c)                                      
DAV:   1     -.248215771271E+02     .73550E-02    -.13757E+00 14464    .896E+00     .798E-03                                     
RMM:   2     -.248287760499E+02    -.71989E-02    -.11358E-02 12734    .108E-01     .214E-03                                     
RMM:   3     -.248290555424E+02    -.27949E-03    -.24240E-04  8773    .184E-02     .121E-03                                     
RMM:   4     -.248290690033E+02    -.13461E-04    -.18037E-05  5731    .667E-03                                                  
   54 T=  3075. E= -.19661770E+02 F= -.24829069E+02 E0= -.24749213E+02  EK=  .51673E+01 SP=  .00E+00 SK=  .00E+00 mag=       .996
       N       E                     dE             d eps       ncg     rms          rms(c)                                      
DAV:   1     -.248226314779E+02     .64241E-02    -.18787E+00 14384    .929E+00     .811E-03                                     
RMM:   2     -.248290523700E+02    -.64209E-02    -.95197E-03 12730    .979E-02     .196E-03                                     
RMM:   3     -.248291366980E+02    -.84328E-04    -.13717E-04  8623    .126E-02     .118E-03                                     
RMM:   4     -.248291773519E+02    -.40654E-04    -.10789E-05  5572    .556E-03     .669E-04                                     
RMM:   5     -.248292010080E+02    -.23656E-04    -.52018E-06  5206    .441E-03                                                  
   55 T=  3075. E= -.19661764E+02 F= -.24829201E+02 E0= -.24749345E+02  EK=  .51674E+01 SP=  .00E+00 SK=  .00E+00 mag=       .995
       N       E                     dE             d eps       ncg     rms          rms(c)                                      
DAV:   1     -.248041378668E+02     .25039E-01    -.17685E+00 14960    .858E+00     .102E-02                                     
RMM:   2     -.248300776683E+02    -.25940E-01    -.20275E-01 12919    .219E-01     .267E-03                                     
RMM:   3     -.248293131569E+02     .76451E-03    -.32960E-03  9495    .361E-02     .206E-03                                     
RMM:   4     -.248293147192E+02    -.15623E-05    -.18671E-04  6649    .125E-02                                                  
   56 T=  3075. E= -.19661741E+02 F= -.24829315E+02 E0= -.24749460E+02  EK=  .51676E+01 SP=  .00E+00 SK=  .00E+00 mag=       .995
       N       E                     dE             d eps       ncg     rms          rms(c)                                      
DAV:   1     -.248217054087E+02     .76077E-02    -.20431E+00 14704    .788E+00     .914E-03                                     
RMM:   2     -.248283706885E+02    -.66653E-02    -.11689E-02 12749    .109E-01     .400E-03                                     
RMM:   3     -.248291650806E+02    -.79439E-03    -.15811E-04  8915    .166E-02     .248E-03                                     
RMM:   4     -.248294419937E+02    -.27691E-03    -.35923E-04  8618    .231E-02     .123E-03                                     
RMM:   5     -.248294665533E+02    -.24560E-04    -.23818E-05  6323    .675E-03                                                  
   57 T=  3075. E= -.19661755E+02 F= -.24829467E+02 E0= -.24749612E+02  EK=  .51677E+01 SP=  .00E+00 SK=  .00E+00 mag=       .994
       N       E                     dE             d eps       ncg     rms          rms(c)                                      
DAV:   1     -.248181855035E+02     .11256E-01    -.20961E+00 14432    .801E+00     .997E-03                                     
RMM:   2     -.248291478703E+02    -.10962E-01    -.59358E-02 12658    .163E-01     .420E-03                                     
RMM:   3     -.248294926875E+02    -.34482E-03    -.69314E-04  8734    .207E-02     .287E-03                                     
RMM:   4     -.248295585048E+02    -.65817E-04    -.87073E-05  6481    .107E-02     .233E-03                                     
RMM:   5     -.248295750191E+02    -.16514E-04    -.13786E-05  5394    .538E-03                                                  
   58 T=  3075. E= -.19661724E+02 F= -.24829575E+02 E0= -.24749721E+02  EK=  .51679E+01 SP=  .00E+00 SK=  .00E+00 mag=       .994
       N       E                     dE             d eps       ncg     rms          rms(c)                                      
DAV:   1     -.248195324703E+02     .10026E-01    -.19226E+00 15768    .857E+00     .906E-03                                     
RMM:   2     -.248295163667E+02    -.99839E-02    -.43876E-02 13094    .162E-01     .315E-03                                     
RMM:   3     -.248296541556E+02    -.13779E-03    -.48434E-04  9480    .171E-02     .187E-03                                     
RMM:   4     -.248297202736E+02    -.66118E-04    -.42537E-05  6769    .953E-03     .134E-03                                     
RMM:   5     -.248297121447E+02     .81288E-05    -.18224E-05  5837    .728E-03                                                  
   59 T=  3075. E= -.19661725E+02 F= -.24829712E+02 E0= -.24749858E+02  EK=  .51680E+01 SP=  .00E+00 SK=  .00E+00 mag=       .994
       N       E                     dE             d eps       ncg     rms          rms(c)                                      
DAV:   1     -.248231220838E+02     .65982E-02    -.16221E+00 16320    .874E+00     .837E-03                                     
RMM:   2     -.248295313868E+02    -.64093E-02    -.15737E-02 13172    .142E-01     .402E-03                                     
RMM:   3     -.248298299568E+02    -.29857E-03    -.30366E-04  9575    .198E-02     .293E-03                                     
RMM:   4     -.248298511203E+02    -.21164E-04    -.24957E-05  7194    .761E-03                                                  
   60 T=  3076. E= -.19661729E+02 F= -.24829851E+02 E0= -.24749997E+02  EK=  .51681E+01 SP=  .00E+00 SK=  .00E+00 mag=       .993
       N       E                     dE             d eps       ncg     rms          rms(c)                                      
DAV:   1     -.248239144536E+02     .59155E-02    -.13570E+00 15336    .865E+00     .845E-03                                     
RMM:   2     -.248296528772E+02    -.57384E-02    -.49505E-03 13114    .924E-02     .360E-03                                     
RMM:   3     -.248299163116E+02    -.26343E-03    -.18269E-04  9818    .226E-02     .188E-03                                     
RMM:   4     -.248299915444E+02    -.75233E-04    -.40361E-05  7166    .945E-03     .111E-03                                     
RMM:   5     -.248300148083E+02    -.23264E-04    -.87417E-06  5393    .478E-03                                                  
   61 T=  3076. E= -.19661755E+02 F= -.24830015E+02 E0= -.24750161E+02  EK=  .51683E+01 SP=  .00E+00 SK=  .00E+00 mag=       .993
       N       E                     dE             d eps       ncg     rms          rms(c)                                      
DAV:   1     -.248239975164E+02     .59940E-02    -.16963E+00 15200    .850E+00     .796E-03                                     
RMM:   2     -.248297103229E+02    -.57128E-02    -.11712E-02 12963    .112E-01     .279E-03                                     
RMM:   3     -.248300431725E+02    -.33285E-03    -.20810E-04  9011    .164E-02     .150E-03                                     
RMM:   4     -.248301419769E+02    -.98804E-04    -.99862E-05  7455    .120E-02     .735E-04                                     
RMM:   5     -.248301523876E+02    -.10411E-04    -.58376E-06  5065    .427E-03                                                  
   62 T=  3076. E= -.19661754E+02 F= -.24830152E+02 E0= -.24750299E+02  EK=  .51684E+01 SP=  .00E+00 SK=  .00E+00 mag=       .992
       N       E                     dE             d eps       ncg     rms          rms(c)                                      
DAV:   1     -.248243565645E+02     .57854E-02    -.35065E+00 15232    .836E+00     .827E-03                                     
RMM:   2     -.248301461715E+02    -.57896E-02    -.13566E-02 13126    .128E-01     .255E-03                                     
RMM:   3     -.248302218271E+02    -.75656E-04    -.18337E-04  8739    .140E-02     .136E-03                                     
RMM:   4     -.248302435385E+02    -.21711E-04    -.18069E-05  5200    .554E-03                                                  
   63 T=  3076. E= -.19661704E+02 F= -.24830244E+02 E0= -.24750390E+02  EK=  .51685E+01 SP=  .00E+00 SK=  .00E+00 mag=       .992
       N       E                     dE             d eps       ncg     rms          rms(c)                                      
DAV:   1     -.248252375435E+02     .49843E-02    -.31676E-01 15080    .645E+00     .814E-03                                     
RMM:   2     -.248303124366E+02    -.50749E-02    -.58779E-03 12911    .984E-02     .307E-03                                     
RMM:   3     -.248304154213E+02    -.10298E-03    -.13522E-04  9068    .153E-02     .190E-03                                     
RMM:   4     -.248304187536E+02    -.33323E-05    -.62448E-06  5189    .469E-03                                                  
   64 T=  3076. E= -.19661735E+02 F= -.24830419E+02 E0= -.24750566E+02  EK=  .51687E+01 SP=  .00E+00 SK=  .00E+00 mag=       .991
       N       E                     dE             d eps       ncg     rms          rms(c)                                      
DAV:   1     -.248256224136E+02     .47930E-02    -.14600E+00 14400    .764E+00     .845E-03                                     
RMM:   2     -.248304686787E+02    -.48463E-02    -.75350E-03 12963    .103E-01     .354E-03                                     
RMM:   3     -.248305394180E+02    -.70739E-04    -.72441E-05  9296    .112E-02     .184E-03                                     
RMM:   4     -.248305563832E+02    -.16965E-04    -.59098E-06  5568    .488E-03                                                  
   65 T=  3076. E= -.19661724E+02 F= -.24830556E+02 E0= -.24750704E+02  EK=  .51688E+01 SP=  .00E+00 SK=  .00E+00 mag=       .990
       N       E                     dE             d eps       ncg     rms          rms(c)                                      
DAV:   1     -.248261252191E+02     .44142E-02    -.23055E+00 15192    .110E+01     .844E-03                                     
RMM:   2     -.248305749288E+02    -.44497E-02    -.49585E-03 13320    .102E-01     .354E-03                                     
RMM:   3     -.248306769099E+02    -.10198E-03    -.11957E-04 10103    .156E-02     .141E-03                                     
RMM:   4     -.248306957482E+02    -.18838E-04    -.67654E-06  5459    .478E-03                                                  
   66 T=  3076. E= -.19661712E+02 F= -.24830696E+02 E0= -.24750843E+02  EK=  .51690E+01 SP=  .00E+00 SK=  .00E+00 mag=       .990
       N       E                     dE             d eps       ncg     rms          rms(c)                                      
DAV:   1     -.248255388873E+02     .51380E-02    -.11954E+00 15344    .100E+01     .858E-03                                     
RMM:   2     -.248307946769E+02    -.52558E-02    -.13702E-02 13689    .154E-01     .448E-03                                     
RMM:   3     -.248308163295E+02    -.21653E-04    -.13341E-04 10064    .154E-02                                                  
   67 T=  3076. E= -.19661678E+02 F= -.24830816E+02 E0= -.24750964E+02  EK=  .51691E+01 SP=  .00E+00 SK=  .00E+00 mag=       .989
       N       E                     dE             d eps       ncg     rms          rms(c)                                      
DAV:   1     -.248263765493E+02     .44181E-02    -.19289E+00 15240    .837E+00     .869E-03                                     
RMM:   2     -.248308554678E+02    -.44789E-02    -.46041E-03 13437    .969E-02     .286E-03                                     
RMM:   3     -.248309738665E+02    -.11840E-03    -.55889E-05  9416    .111E-02     .185E-03                                     
RMM:   4     -.248310126647E+02    -.38798E-04    -.95557E-06  6848    .674E-03     .115E-03                                     
RMM:   5     -.248310193457E+02    -.66810E-05    -.29531E-06  5140    .432E-03                                                  
   68 T=  3076. E= -.19661721E+02 F= -.24831019E+02 E0= -.24751167E+02  EK=  .51693E+01 SP=  .00E+00 SK=  .00E+00 mag=       .988
       N       E                     dE             d eps       ncg     rms          rms(c)                                      
DAV:   1     -.248260480867E+02     .49646E-02    -.16081E+00 15624    .861E+00     .923E-03                                     
RMM:   2     -.248311152656E+02    -.50672E-02    -.19747E-02 13383    .148E-01     .208E-03                                     
RMM:   3     -.248311573247E+02    -.42059E-04    -.22145E-04  8849    .145E-02     .143E-03                                     
RMM:   4     -.248311728299E+02    -.15505E-04    -.21019E-05  5275    .573E-03                                                  
   69 T=  3076. E= -.19661710E+02 F= -.24831173E+02 E0= -.24751321E+02  EK=  .51695E+01 SP=  .00E+00 SK=  .00E+00 mag=       .988
       N       E                     dE             d eps       ncg     rms          rms(c)                                      
DAV:   1     -.248267713185E+02     .43860E-02    -.19348E+00 14800    .100E+01     .858E-03                                     
RMM:   2     -.248312322192E+02    -.44609E-02    -.84562E-03 13308    .116E-01     .338E-03                                     
RMM:   3     -.248312871154E+02    -.54896E-04    -.18216E-04  9492    .132E-02     .176E-03                                     
RMM:   4     -.248313362335E+02    -.49118E-04    -.13623E-05  6055    .579E-03     .969E-04                                     
RMM:   5     -.248313490267E+02    -.12793E-04    -.43690E-06  4876    .430E-03                                                  
   70 T=  3076. E= -.19661715E+02 F= -.24831349E+02 E0= -.24751497E+02  EK=  .51696E+01 SP=  .00E+00 SK=  .00E+00 mag=       .987
       N       E                     dE             d eps       ncg     rms          rms(c)                                      
DAV:   1     -.248277410830E+02     .35952E-02    -.19936E+00 14952    .877E+00     .890E-03                                     
RMM:   2     -.248314120020E+02    -.36709E-02    -.12276E-02 13448    .136E-01     .261E-03                                     
RMM:   3     -.248314901719E+02    -.78170E-04    -.11276E-04  9394    .136E-02     .134E-03                                     
RMM:   4     -.248315048645E+02    -.14693E-04    -.10030E-05  5261    .526E-03                                                  
   71 T=  3077. E= -.19661693E+02 F= -.24831505E+02 E0= -.24751653E+02  EK=  .51698E+01 SP=  .00E+00 SK=  .00E+00 mag=       .986
       N       E                     dE             d eps       ncg     rms          rms(c)                                      
DAV:   1     -.248278332313E+02     .36569E-02    -.19033E+00 14832    .865E+00     .841E-03                                     
RMM:   2     -.248316387624E+02    -.38055E-02    -.78075E-03 13234    .118E-01     .228E-03                                     
RMM:   3     -.248316787024E+02    -.39940E-04    -.10868E-04  8601    .124E-02     .168E-03                                     
RMM:   4     -.248317023414E+02    -.23639E-04    -.13653E-05  6012    .609E-03                                                  
   72 T=  3077. E= -.19661703E+02 F= -.24831702E+02 E0= -.24751850E+02  EK=  .51700E+01 SP=  .00E+00 SK=  .00E+00 mag=       .985
       N       E                     dE             d eps       ncg     rms          rms(c)                                      
DAV:   1     -.248290961210E+02     .25826E-02    -.12528E+00 14480    .829E+00     .834E-03                                     
RMM:   2     -.248318615533E+02    -.27654E-02    -.38491E-03 13187    .990E-02     .293E-03                                     
RMM:   3     -.248318935282E+02    -.31975E-04    -.32961E-05  9436    .991E-03     .123E-03                                     
RMM:   4     -.248318974842E+02    -.39560E-05    -.25547E-06  4969    .417E-03                                                  
   73 T=  3077. E= -.19661700E+02 F= -.24831897E+02 E0= -.24752045E+02  EK=  .51702E+01 SP=  .00E+00 SK=  .00E+00 mag=       .984
       N       E                     dE             d eps       ncg     rms          rms(c)                                      
DAV:   1     -.248294897078E+02     .24038E-02    -.19317E+00 14032    .859E+00     .836E-03                                     
RMM:   2     -.248320741769E+02    -.25845E-02    -.30075E-03 12930    .869E-02     .291E-03                                     
RMM:   3     -.248321017112E+02    -.27534E-04    -.29166E-05  8795    .935E-03                                                  
   74 T=  3077. E= -.19661693E+02 F= -.24832102E+02 E0= -.24752248E+02  EK=  .51704E+01 SP=  .00E+00 SK=  .00E+00 mag=       .983
       N       E                     dE             d eps       ncg     rms          rms(c)                                      
DAV:   1     -.248292882681E+02     .27859E-02    -.32971E+00 14448    .101E+01     .913E-03                                     
RMM:   2     -.248322590256E+02    -.29708E-02    -.67295E-03 13571    .116E-01     .261E-03                                     
RMM:   3     -.248322983166E+02    -.39291E-04    -.59655E-05  9638    .109E-02     .163E-03                                     
RMM:   4     -.248323199769E+02    -.21660E-04    -.68182E-06  5886    .542E-03                                                  
   75 T=  3077. E= -.19661687E+02 F= -.24832320E+02 E0= -.24752467E+02  EK=  .51706E+01 SP=  .00E+00 SK=  .00E+00 mag=       .982
       N       E                     dE             d eps       ncg     rms          rms(c)                                      
DAV:   1     -.248290280591E+02     .32703E-02    -.28446E+00 14104    .916E+00     .863E-03                                     
RMM:   2     -.248324830831E+02    -.34550E-02    -.20757E-02 13110    .141E-01     .194E-03                                     
RMM:   3     -.248325552537E+02    -.72171E-04    -.32562E-04  8804    .161E-02     .106E-03                                     
RMM:   4     -.248325636584E+02    -.84047E-05    -.18867E-05  5491    .621E-03                                                  
   76 T=  3077. E= -.19661691E+02 F= -.24832564E+02 E0= -.24752711E+02  EK=  .51709E+01 SP=  .00E+00 SK=  .00E+00 mag=       .981
       N       E                     dE             d eps       ncg     rms          rms(c)                                      
DAV:   1     -.248296224921E+02     .29328E-02    -.21773E+00 15136    .966E+00     .858E-03                                     
RMM:   2     -.248327565576E+02    -.31341E-02    -.18186E-02 13142    .153E-01     .235E-03                                     
RMM:   3     -.248328094420E+02    -.52884E-04    -.23539E-04  9136    .158E-02     .153E-03                                     
RMM:   4     -.248328152397E+02    -.57976E-05    -.22117E-05  5311    .619E-03                                                  
   77 T=  3077. E= -.19661685E+02 F= -.24832815E+02 E0= -.24752961E+02  EK=  .51711E+01 SP=  .00E+00 SK=  .00E+00 mag=       .979
       N       E                     dE             d eps       ncg     rms          rms(c)                                      
DAV:   1     -.248311243897E+02     .16851E-02    -.84696E-01 13936    .956E+00     .825E-03                                     
RMM:   2     -.248330392109E+02    -.19148E-02    -.10148E-02 12982    .111E-01     .267E-03                                     
RMM:   3     -.248330841413E+02    -.44930E-04    -.13262E-04  9284    .138E-02     .161E-03                                     
RMM:   4     -.248330879341E+02    -.37928E-05    -.77169E-06  5279    .524E-03                                                  
   78 T=  3078. E= -.19661679E+02 F= -.24833088E+02 E0= -.24753234E+02  EK=  .51714E+01 SP=  .00E+00 SK=  .00E+00 mag=       .978
       N       E                     dE             d eps       ncg     rms          rms(c)                                      
DAV:   1     -.248323075914E+02     .77655E-03    -.13955E+00 13136    .884E+00     .815E-03                                     
RMM:   2     -.248333160344E+02    -.10084E-02    -.67687E-04 12514    .523E-02     .284E-03                                     
RMM:   3     -.248333586277E+02    -.42593E-04    -.12126E-05  9058    .764E-03     .176E-03                                     
RMM:   4     -.248333862799E+02    -.27652E-04    -.79165E-06  6590    .569E-03                                                  
   79 T=  3078. E= -.19661676E+02 F= -.24833386E+02 E0= -.24753532E+02  EK=  .51717E+01 SP=  .00E+00 SK=  .00E+00 mag=       .977
       N       E                     dE             d eps       ncg     rms          rms(c)                                      
DAV:   1     -.248327681270E+02     .59050E-03    -.24650E+00 13512    .857E+00     .768E-03                                     
RMM:   2     -.248336813801E+02    -.91325E-03    -.22165E-03 12427    .584E-02     .252E-03                                     
RMM:   3     -.248337031450E+02    -.21765E-04    -.32836E-05  8960    .914E-03                                                  
[...]
RMM:   5     -.247905811721E+02    -.14503E-02    -.11947E-05  7756    .684E-03     .116E-03                                     
RMM:   6     -.247905293019E+02     .51870E-04    -.25315E-06  4214    .406E-03     .372E-04                                     
RMM:   7     -.247905433674E+02    -.14066E-04    -.10696E-07  2328    .238E-03                                                  
  455 T=  3054. E= -.19659467E+02 F= -.24790543E+02 E0= -.24711064E+02  EK=  .51311E+01 SP=  .00E+00 SK=  .00E+00 mag=      1.000
       N       E                     dE             d eps       ncg     rms          rms(c)                                      
DAV:   1     -.247832450920E+02     .72842E-02    -.97607E-01 11168    .586E+00     .741E-03                                     
RMM:   2     -.247852011293E+02    -.19560E-02    -.22282E-04 10686    .220E-02     .527E-03                                     
RMM:   3     -.247886098194E+02    -.34087E-02    -.85258E-06  7427    .620E-03     .254E-03                                     
RMM:   4     -.247897639787E+02    -.11542E-02    -.32687E-06  6627    .470E-03     .290E-03                                     
RMM:   5     -.247901919240E+02    -.42795E-03    -.11175E-05  6686    .675E-03     .123E-03                                     
RMM:   6     -.247901654160E+02     .26508E-04    -.42424E-07  2984    .288E-03                                                  
  456 T=  3053. E= -.19659397E+02 F= -.24790165E+02 E0= -.24710687E+02  EK=  .51308E+01 SP=  .00E+00 SK=  .00E+00 mag=      1.000
       N       E                     dE             d eps       ncg     rms          rms(c)                                      
DAV:   1     -.247830112161E+02     .71807E-02    -.87431E-01 11336    .630E+00     .735E-03                                     
RMM:   2     -.247849766042E+02    -.19654E-02    -.53395E-04 11066    .288E-02     .518E-03                                     
RMM:   3     -.247880608695E+02    -.30843E-02    -.13899E-05  7386    .668E-03     .259E-03                                     
RMM:   4     -.247892948718E+02    -.12340E-02    -.33787E-06  6478    .479E-03     .280E-03                                     
RMM:   5     -.247899461436E+02    -.65127E-03    -.47437E-06  6042    .491E-03     .154E-03                                     
RMM:   6     -.247898518502E+02     .94293E-04    -.39308E-06  4984    .482E-03     .306E-04                                     
RMM:   7     -.247898959555E+02    -.44105E-04    -.14600E-07  2513    .250E-03     .205E-04                                     
RMM:   8     -.247899579214E+02    -.61966E-04    -.30197E-07  2917    .266E-03     .513E-05                                     
RMM:   9     -.247899650767E+02    -.71553E-05    -.11971E-07  2206    .257E-03                                                  
  457 T=  3053. E= -.19659505E+02 F= -.24789965E+02 E0= -.24710488E+02  EK=  .51305E+01 SP=  .00E+00 SK=  .00E+00 mag=      1.000
       N       E                     dE             d eps       ncg     rms          rms(c)                                      
DAV:   1     -.247794067886E+02     .10551E-01    -.15758E+00 11360    .616E+00     .768E-03                                     
RMM:   2     -.247843207229E+02    -.49139E-02    -.29316E-02 10901    .712E-02     .528E-03                                     
RMM:   3     -.247861136221E+02    -.17929E-02    -.11685E-03  5786    .127E-02     .363E-03                                     
RMM:   4     -.247875201197E+02    -.14065E-02    -.83233E-05  5553    .636E-03     .303E-03                                     
RMM:   5     -.247888395299E+02    -.13194E-02    -.10435E-05  6495    .495E-03     .286E-03                                     
RMM:   6     -.247894922843E+02    -.65275E-03    -.23408E-06  5148    .393E-03     .528E-04                                     
RMM:   7     -.247896391894E+02    -.14691E-03    -.51555E-06  5562    .528E-03     .288E-04                                     
RMM:   8     -.247896457476E+02    -.65582E-05    -.17136E-07  2429    .256E-03                                                  
  458 T=  3053. E= -.19659493E+02 F= -.24789646E+02 E0= -.24710170E+02  EK=  .51302E+01 SP=  .00E+00 SK=  .00E+00 mag=      1.000
       N       E                     dE             d eps       ncg     rms          rms(c)                                      
DAV:   1     -.247744819190E+02     .15157E-01    -.25173E+00 11328    .754E+00     .107E-02                                     
RMM:   2     -.247842598039E+02    -.97779E-02    -.78456E-02 11221    .143E-01     .610E-03                                     
RMM:   3     -.247852349949E+02    -.97519E-03    -.91355E-04  8793    .184E-02     .643E-03                                     
RMM:   4     -.247855933109E+02    -.35832E-03    -.45983E-05  4305    .588E-03     .429E-03                                     
RMM:   5     -.247874646989E+02    -.18714E-02    -.53900E-06  6665    .501E-03     .252E-03                                     
RMM:   6     -.247886617421E+02    -.11970E-02    -.19522E-06  6166    .430E-03     .129E-03                                     
RMM:   7     -.247892482645E+02    -.58652E-03    -.20199E-06  5578    .390E-03     .599E-04                                     
RMM:   8     -.247893323586E+02    -.84094E-04    -.82633E-07  3688    .308E-03     .408E-04                                     
RMM:   9     -.247893393540E+02    -.69954E-05    -.14987E-06  4575    .377E-03                                                  
  459 T=  3053. E= -.19659493E+02 F= -.24789339E+02 E0= -.24709865E+02  EK=  .51298E+01 SP=  .00E+00 SK=  .00E+00 mag=      1.000
       N       E                     dE             d eps       ncg     rms          rms(c)                                      
DAV:   1     -.247805141429E+02     .88182E-02    -.87270E-01 11880    .733E+00     .755E-03                                     
RMM:   2     -.247839373093E+02    -.34232E-02    -.14886E-02 11710    .799E-02     .522E-03                                     
RMM:   3     -.247853817917E+02    -.14445E-02    -.26713E-04  7069    .111E-02     .480E-03                                     
RMM:   4     -.247865772696E+02    -.11955E-02    -.17146E-05  5103    .519E-03     .283E-03                                     
RMM:   5     -.247883496198E+02    -.17724E-02    -.46714E-06  7152    .521E-03     .203E-03                                     
RMM:   6     -.247890182345E+02    -.66861E-03    -.36908E-06  5692    .450E-03     .433E-04                                     
RMM:   7     -.247890162918E+02     .19427E-05    -.25111E-06  4672    .428E-03                                                  
  460 T=  3053. E= -.19659475E+02 F= -.24789016E+02 E0= -.24709543E+02  EK=  .51295E+01 SP=  .00E+00 SK=  .00E+00 mag=      1.000
       N       E                     dE             d eps       ncg     rms          rms(c)                                      
DAV:   1     -.247815708505E+02     .74474E-02    -.16217E+00 11448    .697E+00     .746E-03                                     
RMM:   2     -.247836855471E+02    -.21147E-02    -.18682E-03 11031    .334E-02     .522E-03                                     
RMM:   3     -.247864509060E+02    -.27654E-02    -.58631E-05  7522    .759E-03     .401E-03                                     
RMM:   4     -.247878434426E+02    -.13925E-02    -.10378E-05  6144    .497E-03     .189E-03                                     
RMM:   5     -.247886803291E+02    -.83689E-03    -.10455E-05  7247    .669E-03     .112E-03                                     
RMM:   6     -.247886291180E+02     .51211E-04    -.50333E-07  3204    .295E-03     .334E-04                                     
RMM:   7     -.247886673831E+02    -.38265E-04    -.64583E-08  2311    .235E-03     .223E-04                                     
RMM:   8     -.247887228581E+02    -.55475E-04    -.13552E-07  2639    .240E-03     .607E-05                                     
RMM:   9     -.247887401742E+02    -.17316E-04    -.18982E-07  2447    .251E-03                                                  
  461 T=  3052. E= -.19659502E+02 F= -.24788740E+02 E0= -.24709268E+02  EK=  .51292E+01 SP=  .00E+00 SK=  .00E+00 mag=      1.000
       N       E                     dE             d eps       ncg     rms          rms(c)                                      
DAV:   1     -.247811320148E+02     .75908E-02    -.17366E+00 11528    .690E+00     .740E-03                                     
RMM:   2     -.247832754528E+02    -.21434E-02    -.18725E-03 10908    .308E-02     .519E-03                                     
RMM:   3     -.247859022131E+02    -.26268E-02    -.38633E-05  7305    .695E-03     .345E-03                                     
RMM:   4     -.247876011083E+02    -.16989E-02    -.48801E-06  6422    .492E-03     .259E-03                                     
RMM:   5     -.247883228024E+02    -.72169E-03    -.25880E-06  5738    .423E-03     .153E-03                                     
RMM:   6     -.247883595827E+02    -.36780E-04    -.40931E-06  5126    .486E-03     .357E-04                                     
RMM:   7     -.247884103427E+02    -.50760E-04    -.14893E-07  2599    .244E-03     .168E-04                                     
RMM:   8     -.247884370171E+02    -.26674E-04    -.15728E-07  2623    .251E-03                                                  
  462 T=  3052. E= -.19659502E+02 F= -.24788437E+02 E0= -.24708966E+02  EK=  .51289E+01 SP=  .00E+00 SK=  .00E+00 mag=      1.000
       N       E                     dE             d eps       ncg     rms          rms(c)                                      
DAV:   1     -.247788701612E+02     .95402E-02    -.14095E+00 11952    .712E+00     .772E-03                                     
RMM:   2     -.247829726488E+02    -.41025E-02    -.21656E-02 11287    .886E-02     .528E-03                                     
RMM:   3     -.247848440362E+02    -.18714E-02    -.58372E-04  6088    .125E-02     .341E-03                                     
RMM:   4     -.247863818209E+02    -.15378E-02    -.31332E-05  6656    .625E-03     .398E-03                                     
RMM:   5     -.247877041419E+02    -.13223E-02    -.48780E-06  6259    .465E-03     .180E-03                                     
RMM:   6     -.247880873448E+02    -.38320E-03    -.20002E-06  5009    .382E-03     .432E-04                                     
RMM:   7     -.247880835083E+02     .38365E-05    -.25240E-06  4780    .432E-03                                                  
  463 T=  3052. E= -.19659450E+02 F= -.24788084E+02 E0= -.24708613E+02  EK=  .51286E+01 SP=  .00E+00 SK=  .00E+00 mag=      1.000
       N       E                     dE             d eps       ncg     rms          rms(c)                                      
DAV:   1     -.247807917581E+02     .72956E-02    -.17704E+00 11256    .704E+00     .738E-03                                     
RMM:   2     -.247827702897E+02    -.19785E-02    -.49775E-04 11212    .301E-02     .525E-03                                     
RMM:   3     -.247857153149E+02    -.29450E-02    -.12779E-05  7176    .662E-03     .273E-03                                     
RMM:   4     -.247872987686E+02    -.15835E-02    -.34988E-06  6857    .501E-03     .254E-03                                     
RMM:   5     -.247878274782E+02    -.52871E-03    -.42118E-06  6079    .483E-03     .180E-03                                     
RMM:   6     -.247877192371E+02     .10824E-03    -.17196E-06  4208    .390E-03     .331E-04                                     
RMM:   7     -.247877817255E+02    -.62488E-04    -.14922E-07  2573    .256E-03     .174E-04                                     
RMM:   8     -.247878310837E+02    -.49358E-04    -.27184E-07  2986    .272E-03     .286E-05                                     
RMM:   9     -.247878305372E+02     .54652E-06    -.19611E-08  1640    .241E-03                                                  
  464 T=  3052. E= -.19659498E+02 F= -.24787831E+02 E0= -.24708362E+02  EK=  .51283E+01 SP=  .00E+00 SK=  .00E+00 mag=      1.000
       N       E                     dE             d eps       ncg     rms          rms(c)                                      
DAV:   1     -.247796361304E+02     .81950E-02    -.12900E+00 11880    .794E+00     .745E-03                                     
RMM:   2     -.247823694461E+02    -.27333E-02    -.77649E-03 11084    .619E-02     .526E-03                                     
RMM:   3     -.247843118747E+02    -.19424E-02    -.16014E-04  6294    .101E-02     .361E-03                                     
RMM:   4     -.247854167301E+02    -.11049E-02    -.14029E-05  5365    .529E-03     .334E-03                                     
RMM:   5     -.247870832372E+02    -.16665E-02    -.36664E-06  6873    .496E-03     .193E-03                                     
RMM:   6     -.247875150035E+02    -.43177E-03    -.51485E-06  5775    .505E-03     .437E-04                                     
RMM:   7     -.247875076947E+02     .73088E-05    -.24020E-07  2779    .278E-03                                                  
  465 T=  3052. E= -.19659475E+02 F= -.24787508E+02 E0= -.24708039E+02  EK=  .51280E+01 SP=  .00E+00 SK=  .00E+00 mag=      1.000
       N       E                     dE             d eps       ncg     rms          rms(c)                                      
DAV:   1     -.247800638749E+02     .74511E-02    -.13995E+00 11736    .757E+00     .743E-03                                     
RMM:   2     -.247821302090E+02    -.20663E-02    -.12800E-03 11448    .380E-02     .540E-03                                     
RMM:   3     -.247842072002E+02    -.20770E-02    -.26738E-05  7204    .713E-03     .347E-03                                     
RMM:   4     -.247862199984E+02    -.20128E-02    -.55303E-06  6602    .529E-03     .209E-03                                     
RMM:   5     -.247870646329E+02    -.84463E-03    -.25895E-06  6302    .440E-03     .263E-03                                     
RMM:   6     -.247871177976E+02    -.53165E-04    -.37007E-06  5132    .477E-03     .403E-04                                     
RMM:   7     -.247871563369E+02    -.38539E-04    -.14724E-07  2574    .255E-03     .243E-04                                     
RMM:   8     -.247872165468E+02    -.60210E-04    -.10751E-07  2674    .248E-03     .609E-05                                     
RMM:   9     -.247872301835E+02    -.13637E-04    -.67981E-08  2181    .249E-03                                                  
  466 T=  3052. E= -.19659495E+02 F= -.24787230E+02 E0= -.24707764E+02  EK=  .51277E+01 SP=  .00E+00 SK=  .00E+00 mag=      1.000
       N       E                     dE             d eps       ncg     rms          rms(c)                                      
DAV:   1     -.247796829550E+02     .75336E-02    -.77246E-01 11240    .589E+00     .733E-03                                     
RMM:   2     -.247818221253E+02    -.21392E-02    -.19805E-03 10781    .321E-02     .520E-03                                     
RMM:   3     -.247843392252E+02    -.25171E-02    -.54057E-05  6882    .729E-03     .292E-03                                     
RMM:   4     -.247860526978E+02    -.17135E-02    -.69226E-06  6310    .509E-03     .229E-03                                     
RMM:   5     -.247867745432E+02    -.72185E-03    -.21941E-06  5676    .415E-03     .218E-03                                     
RMM:   6     -.247868667222E+02    -.92179E-04    -.31353E-06  5032    .455E-03     .381E-04                                     
RMM:   7     -.247868958079E+02    -.29086E-04    -.12507E-07  2505    .252E-03                                                  
  467 T=  3051. E= -.19659458E+02 F= -.24786896E+02 E0= -.24707430E+02  EK=  .51274E+01 SP=  .00E+00 SK=  .00E+00 mag=      1.000
       N       E                     dE             d eps       ncg     rms          rms(c)                                      
DAV:   1     -.247772108773E+02     .96558E-02    -.17508E+00 11336    .755E+00     .771E-03                                     
RMM:   2     -.247814625417E+02    -.42517E-02    -.23017E-02 10955    .748E-02     .533E-03                                     
RMM:   3     -.247829562407E+02    -.14937E-02    -.70820E-04  6625    .131E-02     .490E-03                                     
RMM:   4     -.247840635014E+02    -.11073E-02    -.47547E-05  4491    .576E-03     .287E-03                                     
RMM:   5     -.247861414883E+02    -.20780E-02    -.94709E-06  6958    .555E-03     .157E-03                                     
RMM:   6     -.247865621334E+02    -.42065E-03    -.15727E-06  4501    .360E-03     .472E-04                                     
RMM:   7     -.247865993357E+02    -.37202E-04    -.21350E-06  4818    .418E-03     .285E-04                                     
RMM:   8     -.247866046977E+02    -.53620E-05    -.70787E-08  2278    .249E-03                                                  
  468 T=  3051. E= -.19659463E+02 F= -.24786605E+02 E0= -.24707141E+02  EK=  .51271E+01 SP=  .00E+00 SK=  .00E+00 mag=      1.000
       N       E                     dE             d eps       ncg     rms          rms(c)                                      
DAV:   1     -.247776834853E+02     .89159E-02    -.17500E+00 11832    .944E+00     .764E-03                                     
RMM:   2     -.247811869732E+02    -.35035E-02    -.15555E-02 11488    .901E-02     .528E-03                                     
RMM:   3     -.247829392818E+02    -.17523E-02    -.28217E-04  6600    .126E-02     .384E-03                                     
RMM:   4     -.247837466880E+02    -.80741E-03    -.20575E-05  4739    .569E-03     .345E-03                                     
RMM:   5     -.247860240752E+02    -.22774E-02    -.46006E-06  7165    .551E-03     .139E-03                                     
RMM:   6     -.247863408843E+02    -.31681E-03    -.25031E-06  5027    .403E-03     .466E-04                                     
RMM:   7     -.247863103089E+02     .30575E-04    -.68639E-07  3523    .324E-03     .289E-04                                     
RMM:   8     -.247863161306E+02    -.58217E-05    -.64301E-08  2337    .252E-03                                                  
  469 T=  3051. E= -.19659469E+02 F= -.24786316E+02 E0= -.24706853E+02  EK=  .51268E+01 SP=  .00E+00 SK=  .00E+00 mag=      1.000
       N       E                     dE             d eps       ncg     rms          rms(c)                                      
DAV:   1     -.247772335936E+02     .90767E-02    -.12467E+00 11840    .771E+00     .774E-03                                     
RMM:   2     -.247809073585E+02    -.36738E-02    -.17214E-02 11382    .808E-02     .532E-03                                     
RMM:   3     -.247823402978E+02    -.14329E-02    -.42401E-04  6794    .134E-02     .448E-03                                     
RMM:   4     -.247831855422E+02    -.84524E-03    -.35088E-05  4250    .569E-03     .332E-03                                     
RMM:   5     -.247848583651E+02    -.16728E-02    -.42190E-06  6349    .479E-03     .247E-03                                     
RMM:   6     -.247859495012E+02    -.10911E-02    -.26548E-06  6299    .453E-03     .484E-04                                     
RMM:   7     -.247860333908E+02    -.83890E-04    -.17663E-06  4534    .373E-03     .315E-04                                     
RMM:   8     -.247860166946E+02     .16696E-04    -.15205E-07  2638    .253E-03                                                  
  470 T=  3051. E= -.19659464E+02 F= -.24786017E+02 E0= -.24706555E+02  EK=  .51266E+01 SP=  .00E+00 SK=  .00E+00 mag=      1.000
