       N       E                     dE             d eps       ncg     rms          rms(c)                                      
DAV:   1      .111179711047E+04     .11118E+04    -.62897E+04 16320    .996E+02                                                  
DAV:   2      .171251672559E+02    -.10947E+04    -.10378E+04 16864    .279E+02                                                  
DAV:   3     -.254427570416E+02    -.42568E+02    -.42008E+02 18112    .671E+01                                                  
DAV:   4     -.258177956468E+02    -.37504E+00    -.37452E+00 18136    .605E+00                                                  
DAV:   5     -.258220909012E+02    -.42953E-02    -.42951E-02 18240    .557E-01     .167E+01                                     
RMM:   6     -.243700023150E+02     .14521E+01    -.58211E+00 16320    .813E+00     .106E+01                                     
RMM:   7     -.329921342116E+02    -.86221E+01    -.13445E+01 16336    .727E+00     .997E+00                                     
RMM:   8     -.276567950359E+02     .53353E+01    -.97445E+00 16355    .577E+00     .581E+00                                     
RMM:   9     -.257843947791E+02     .18724E+01    -.33391E+00 16401    .328E+00     .442E+00                                     
RMM:  10     -.249955945450E+02     .78880E+00    -.77663E-01 16379    .198E+00     .137E+00                                     
RMM:  11     -.248925545192E+02     .10304E+00    -.20229E-01 16400    .101E+00     .269E-01                                     
RMM:  12     -.248901135178E+02     .24410E-02    -.70155E-03 16416    .219E-01     .141E-01                                     
RMM:  13     -.248912605956E+02    -.11471E-02    -.98119E-04 16400    .898E-02     .564E-02                                     
RMM:  14     -.248917913210E+02    -.53073E-03    -.67668E-05 10579    .247E-02     .279E-02                                     
RMM:  15     -.248920513389E+02    -.26002E-03    -.50331E-05 10157    .210E-02     .939E-03                                     
RMM:  16     -.248920683900E+02    -.17051E-04    -.82652E-06  9532    .870E-03                                                  
    1 T=  3053. E= -.19761057E+02 F= -.24892068E+02 E0= -.24811403E+02  EK=  .51310E+01 SP=  .00E+00 SK=  .00E+00 mag=       .999
       N       E                     dE             d eps       ncg     rms          rms(c)                                      
DAV:   1     -.244368134185E+02     .45524E+00    -.15516E-01 17088    .154E-01     .301E-01                                     
RMM:   2     -.245764261382E+02    -.13961E+00    -.79767E-04 10923    .362E-02     .216E-01                                     
RMM:   3     -.248703094265E+02    -.29388E+00    -.13706E-03 11770    .425E-02     .221E-02                                     
RMM:   4     -.248882077000E+02    -.17898E-01    -.21817E-05  9202    .970E-03     .120E-02                                     
RMM:   5     -.248921637720E+02    -.39561E-02    -.42736E-05  7289    .728E-03     .227E-03                                     
RMM:   6     -.248919904779E+02     .17329E-03    -.21019E-05  5784    .594E-03     .579E-04                                     
RMM:   7     -.248922499474E+02    -.25947E-03    -.71257E-06  4067    .377E-03     .164E-04                                     
RMM:   8     -.248922446256E+02     .53218E-05    -.14345E-06  3179    .290E-03                                                  
    2 T=  3054. E= -.19761048E+02 F= -.24892245E+02 E0= -.24811580E+02  EK=  .51312E+01 SP=  .00E+00 SK=  .00E+00 mag=      1.000
       N       E                     dE             d eps       ncg     rms          rms(c)                                      
DAV:   1     -.248262982893E+02     .65952E-01    -.34829E-01 12416    .376E+00     .421E-02                                     
RMM:   2     -.248543934633E+02    -.28095E-01    -.12835E-01 11239    .210E-01     .270E-02                                     
RMM:   3     -.248833876298E+02    -.28994E-01    -.48999E-03 10628    .353E-02     .133E-02                                     
RMM:   4     -.248917297264E+02    -.83421E-02    -.10764E-03 10271    .180E-02     .327E-03                                     
RMM:   5     -.248918610178E+02    -.13129E-03    -.36821E-05  5181    .529E-03     .177E-03                                     
RMM:   6     -.248920157626E+02    -.15474E-03    -.26676E-05  5651    .539E-03     .107E-03                                     
RMM:   7     -.248923334370E+02    -.31767E-03    -.68353E-06  4635    .443E-03     .443E-04                                     
RMM:   8     -.248924124808E+02    -.79044E-04    -.39748E-06  4176    .379E-03     .342E-04                                     
RMM:   9     -.248924373455E+02    -.24865E-04    -.45104E-07  2677    .260E-03                                                  
    3 T=  3054. E= -.19761053E+02 F= -.24892437E+02 E0= -.24811773E+02  EK=  .51314E+01 SP=  .00E+00 SK=  .00E+00 mag=      1.000
       N       E                     dE             d eps       ncg     rms          rms(c)                                      
DAV:   1     -.248839389443E+02     .84735E-02    -.17145E+00 13016    .885E+00     .913E-03                                     
RMM:   2     -.248885952934E+02    -.46563E-02    -.11596E-02 11454    .846E-02     .461E-03                                     
RMM:   3     -.248901192844E+02    -.15240E-02    -.22328E-04  7375    .123E-02     .253E-03                                     
RMM:   4     -.248924403204E+02    -.23210E-02    -.29161E-05  7135    .717E-03     .826E-04                                     
RMM:   5     -.248926057465E+02    -.16543E-03    -.18755E-05  5799    .636E-03     .276E-04                                     
RMM:   6     -.248925969044E+02     .88420E-05    -.81050E-07  3316    .308E-03                                                  
    4 T=  3054. E= -.19761021E+02 F= -.24892597E+02 E0= -.24811932E+02  EK=  .51316E+01 SP=  .00E+00 SK=  .00E+00 mag=      1.000
       N       E                     dE             d eps       ncg     rms          rms(c)                                      
DAV:   1     -.248828969134E+02     .97088E-02    -.10861E+00 13840    .816E+00     .866E-03                                     
RMM:   2     -.248914849351E+02    -.85880E-02    -.24142E-02 11628    .145E-01     .294E-03                                     
RMM:   3     -.248919905901E+02    -.50565E-03    -.68472E-04  8543    .235E-02     .184E-03                                     
RMM:   4     -.248922590744E+02    -.26848E-03    -.69689E-05  5473    .917E-03     .116E-03                                     
RMM:   5     -.248926943144E+02    -.43524E-03    -.54236E-06  5357    .454E-03     .345E-04                                     
RMM:   6     -.248927855717E+02    -.91257E-04    -.24100E-06  4490    .397E-03     .205E-04                                     
RMM:   7     -.248928065095E+02    -.20938E-04    -.48248E-07  2731    .281E-03                                                  
    5 T=  3054. E= -.19761038E+02 F= -.24892807E+02 E0= -.24812142E+02  EK=  .51318E+01 SP=  .00E+00 SK=  .00E+00 mag=      1.000
       N       E                     dE             d eps       ncg     rms          rms(c)                                      
DAV:   1     -.248850970737E+02     .76885E-02    -.13263E+00 12544    .869E+00     .806E-03                                     
RMM:   2     -.248916338985E+02    -.65368E-02    -.42179E-03 11437    .610E-02     .255E-03                                     
RMM:   3     -.248922675920E+02    -.63369E-03    -.82758E-05  8174    .107E-02     .162E-03                                     
RMM:   4     -.248927679278E+02    -.50034E-03    -.99651E-06  5778    .539E-03     .698E-04                                     
RMM:   5     -.248929647540E+02    -.19683E-03    -.54410E-06  4776    .423E-03     .279E-04                                     
RMM:   6     -.248929667821E+02    -.20281E-05    -.40477E-06  4478    .411E-03                                                  
    6 T=  3054. E= -.19761003E+02 F= -.24892967E+02 E0= -.24812303E+02  EK=  .51320E+01 SP=  .00E+00 SK=  .00E+00 mag=      1.000
       N       E                     dE             d eps       ncg     rms          rms(c)                                      
DAV:   1     -.248844000761E+02     .85647E-02    -.13449E+00 12600    .813E+00     .827E-03                                     
RMM:   2     -.248923342632E+02    -.79342E-02    -.12650E-02 11279    .964E-02     .302E-03                                     
RMM:   3     -.248928071382E+02    -.47288E-03    -.17195E-04  9280    .141E-02     .139E-03                                     
RMM:   4     -.248928616110E+02    -.54473E-04    -.11318E-05  5377    .559E-03     .998E-04                                     
RMM:   5     -.248929194506E+02    -.57840E-04    -.10225E-06  3909    .328E-03     .520E-04                                     
RMM:   6     -.248931064812E+02    -.18703E-03    -.92859E-07  3976    .329E-03     .196E-04                                     
RMM:   7     -.248931990158E+02    -.92535E-04    -.99207E-07  3387    .314E-03     .853E-05                                     
RMM:   8     -.248932165812E+02    -.17565E-04    -.57258E-07  2805    .294E-03                                                  
    7 T=  3054. E= -.19761055E+02 F= -.24893217E+02 E0= -.24812552E+02  EK=  .51322E+01 SP=  .00E+00 SK=  .00E+00 mag=      1.000
       N       E                     dE             d eps       ncg     rms          rms(c)                                      
DAV:   1     -.248853412368E+02     .78578E-02    -.18877E+00 11600    .803E+00     .797E-03                                     
RMM:   2     -.248926107762E+02    -.72695E-02    -.59814E-03 11115    .543E-02     .233E-03                                     
RMM:   3     -.248928073682E+02    -.19659E-03    -.11217E-04  8808    .106E-02     .172E-03                                     
RMM:   4     -.248931672798E+02    -.35991E-03    -.12679E-05  4940    .501E-03     .833E-04                                     
RMM:   5     -.248933040965E+02    -.13682E-03    -.49539E-06  5474    .510E-03     .255E-04                                     
RMM:   6     -.248933699985E+02    -.65902E-04    -.55917E-07  3119    .308E-03     .102E-04                                     
RMM:   7     -.248934126876E+02    -.42689E-04    -.74151E-07  2934    .304E-03     .419E-05                                     
RMM:   8     -.248934171397E+02    -.44522E-05    -.23604E-07  2329    .278E-03                                                  
    8 T=  3054. E= -.19761057E+02 F= -.24893417E+02 E0= -.24812753E+02  EK=  .51324E+01 SP=  .00E+00 SK=  .00E+00 mag=      1.000
       N       E                     dE             d eps       ncg     rms          rms(c)                                      
DAV:   1     -.248835323028E+02     .98804E-02    -.14263E+00 11832    .790E+00     .834E-03                                     
RMM:   2     -.248928305626E+02    -.92983E-02    -.25385E-02 10919    .889E-02     .305E-03                                     
RMM:   3     -.248932333728E+02    -.40281E-03    -.35077E-04  9112    .138E-02     .126E-03                                     
RMM:   4     -.248934317644E+02    -.19839E-03    -.38264E-05  4345    .491E-03     .891E-04                                     
RMM:   5     -.248935893115E+02    -.15755E-03    -.63725E-06  5031    .442E-03     .273E-04                                     
RMM:   6     -.248936059778E+02    -.16666E-04    -.80370E-07  3326    .308E-03                                                  
    9 T=  3054. E= -.19761044E+02 F= -.24893606E+02 E0= -.24812941E+02  EK=  .51326E+01 SP=  .00E+00 SK=  .00E+00 mag=      1.000
       N       E                     dE             d eps       ncg     rms          rms(c)                                      
DAV:   1     -.248837980760E+02     .97912E-02    -.15871E+00 11616    .900E+00     .833E-03                                     
RMM:   2     -.248928657447E+02    -.90677E-02    -.24789E-02 11020    .106E-01     .264E-03                                     
RMM:   3     -.248933932534E+02    -.52751E-03    -.45181E-04  8080    .149E-02     .158E-03                                     
RMM:   4     -.248935811024E+02    -.18785E-03    -.55695E-05  5192    .656E-03     .940E-04                                     
RMM:   5     -.248937121679E+02    -.13107E-03    -.37515E-06  4137    .379E-03     .483E-04                                     
RMM:   6     -.248937726892E+02    -.60521E-04    -.92637E-07  4037    .336E-03     .179E-04                                     
RMM:   7     -.248938117067E+02    -.39018E-04    -.24518E-06  4054    .354E-03     .962E-05                                     
RMM:   8     -.248938204167E+02    -.87100E-05    -.68149E-07  3292    .313E-03                                                  
   10 T=  3055. E= -.19761054E+02 F= -.24893820E+02 E0= -.24813156E+02  EK=  .51328E+01 SP=  .00E+00 SK=  .00E+00 mag=      1.000
       N       E                     dE             d eps       ncg     rms          rms(c)                                      
DAV:   1     -.248863401802E+02     .74715E-02    -.13610E+00 11512    .936E+00     .788E-03                                     
RMM:   2     -.248931305804E+02    -.67904E-02    -.20941E-03 11528    .419E-02     .305E-03                                     
RMM:   3     -.248935263766E+02    -.39580E-03    -.53315E-05  8081    .931E-03     .192E-03                                     
RMM:   4     -.248937092194E+02    -.18284E-03    -.60861E-06  6194    .490E-03     .714E-04                                     
RMM:   5     -.248938903926E+02    -.18117E-03    -.18872E-06  3939    .336E-03     .380E-04                                     
RMM:   6     -.248939934288E+02    -.10304E-03    -.72791E-07  3861    .323E-03     .184E-04                                     
RMM:   7     -.248940167864E+02    -.23358E-04    -.43924E-07  3090    .283E-03                                                  
   11 T=  3055. E= -.19761043E+02 F= -.24894017E+02 E0= -.24813352E+02  EK=  .51330E+01 SP=  .00E+00 SK=  .00E+00 mag=      1.000
       N       E                     dE             d eps       ncg     rms          rms(c)                                      
DAV:   1     -.248857957877E+02     .81976E-02    -.14225E+00 12008    .982E+00     .802E-03                                     
RMM:   2     -.248934764697E+02    -.76807E-02    -.92498E-03 11349    .684E-02     .362E-03                                     
RMM:   3     -.248938011201E+02    -.32465E-03    -.17831E-04  9411    .111E-02     .161E-03                                     
RMM:   4     -.248938836346E+02    -.82515E-04    -.15923E-05  4605    .432E-03     .127E-03                                     
RMM:   5     -.248941543867E+02    -.27075E-03    -.30125E-06  4780    .406E-03     .400E-04                                     
RMM:   6     -.248942165232E+02    -.62136E-04    -.20853E-06  4326    .386E-03     .275E-04                                     
RMM:   7     -.248942075613E+02     .89619E-05    -.78723E-07  2880    .289E-03                                                  
   12 T=  3055. E= -.19761025E+02 F= -.24894208E+02 E0= -.24813543E+02  EK=  .51332E+01 SP=  .00E+00 SK=  .00E+00 mag=      1.000
       N       E                     dE             d eps       ncg     rms          rms(c)                                      
DAV:   1     -.248866123180E+02     .76042E-02    -.20798E+00 12056    .941E+00     .790E-03                                     
RMM:   2     -.248935218491E+02    -.69095E-02    -.34341E-03 11532    .599E-02     .253E-03                                     
RMM:   3     -.248940904787E+02    -.56863E-03    -.39823E-05  8437    .943E-03     .176E-03                                     
RMM:   4     -.248942558663E+02    -.16539E-03    -.57922E-06  5941    .501E-03     .677E-04                                     
RMM:   5     -.248943838935E+02    -.12803E-03    -.20578E-06  4826    .386E-03     .274E-04                                     
RMM:   6     -.248944297043E+02    -.45811E-04    -.14702E-06  3761    .324E-03     .995E-05                                     
RMM:   7     -.248944427234E+02    -.13019E-04    -.11778E-06  3536    .319E-03                                                  
   13 T=  3055. E= -.19761050E+02 F= -.24894443E+02 E0= -.24813778E+02  EK=  .51334E+01 SP=  .00E+00 SK=  .00E+00 mag=      1.000
       N       E                     dE             d eps       ncg     rms          rms(c)                                      
DAV:   1     -.248870536114E+02     .73761E-02    -.23719E+00 12048    .963E+00     .787E-03                                     
RMM:   2     -.248938466762E+02    -.67931E-02    -.15237E-03 11556    .472E-02     .444E-03                                     
RMM:   3     -.248942005197E+02    -.35384E-03    -.34635E-05  9330    .944E-03     .232E-03                                     
RMM:   4     -.248945080193E+02    -.30750E-03    -.58583E-06  6840    .557E-03     .705E-04                                     
RMM:   5     -.248946226173E+02    -.11460E-03    -.22322E-06  4566    .416E-03     .351E-04                                     
RMM:   6     -.248946407332E+02    -.18116E-04    -.18284E-06  4426    .366E-03                                                  
   14 T=  3055. E= -.19761036E+02 F= -.24894641E+02 E0= -.24813976E+02  EK=  .51336E+01 SP=  .00E+00 SK=  .00E+00 mag=      1.000
       N       E                     dE             d eps       ncg     rms          rms(c)                                      
DAV:   1     -.248863672651E+02     .82554E-02    -.19164E+00 12280    .108E+01     .803E-03                                     
RMM:   2     -.248939933048E+02    -.76260E-02    -.96374E-03 11710    .853E-02     .487E-03                                     
RMM:   3     -.248945273801E+02    -.53408E-03    -.16602E-04  9570    .129E-02     .252E-03                                     
RMM:   4     -.248946621664E+02    -.13479E-03    -.15987E-05  5972    .572E-03     .100E-03                                     
RMM:   5     -.248948112808E+02    -.14911E-03    -.39957E-06  6084    .448E-03     .307E-04                                     
RMM:   6     -.248948480585E+02    -.36778E-04    -.87643E-07  3379    .312E-03     .201E-04                                     
RMM:   7     -.248948617140E+02    -.13656E-04    -.13403E-06  3745    .313E-03                                                  
   15 T=  3055. E= -.19761043E+02 F= -.24894862E+02 E0= -.24814197E+02  EK=  .51338E+01 SP=  .00E+00 SK=  .00E+00 mag=      1.000
       N       E                     dE             d eps       ncg     rms          rms(c)                                      
DAV:   1     -.248865054850E+02     .83426E-02    -.17273E+00 12032    .101E+01     .807E-03                                     
RMM:   2     -.248943143508E+02    -.78089E-02    -.11315E-02 11494    .765E-02     .214E-03                                     
RMM:   3     -.248948870101E+02    -.57266E-03    -.25831E-04  9156    .139E-02     .819E-04                                     
RMM:   4     -.248949641187E+02    -.77109E-04    -.23912E-05  4744    .566E-03     .506E-04                                     
RMM:   5     -.248950566563E+02    -.92538E-04    -.61762E-06  4640    .434E-03     .267E-04                                     
RMM:   6     -.248950685506E+02    -.11894E-04    -.45935E-07  2823    .292E-03                                                  
   16 T=  3055. E= -.19761033E+02 F= -.24895069E+02 E0= -.24814404E+02  EK=  .51340E+01 SP=  .00E+00 SK=  .00E+00 mag=      1.000
       N       E                     dE             d eps       ncg     rms          rms(c)                                      
DAV:   1     -.248868795966E+02     .81771E-02    -.20823E+00 11872    .976E+00     .798E-03                                     
RMM:   2     -.248944478713E+02    -.75683E-02    -.86848E-03 11639    .720E-02     .175E-03                                     
RMM:   3     -.248950782834E+02    -.63041E-03    -.18638E-04  8055    .119E-02     .123E-03                                     
RMM:   4     -.248951367497E+02    -.58466E-04    -.24196E-05  5423    .584E-03     .112E-03                                     
RMM:   5     -.248952223342E+02    -.85585E-04    -.31188E-06  4813    .396E-03     .325E-04                                     
RMM:   6     -.248952853863E+02    -.63052E-04    -.41568E-06  4855    .439E-03     .253E-04                                     
RMM:   7     -.248952987424E+02    -.13356E-04    -.64752E-07  2749    .303E-03                                                  
   17 T=  3055. E= -.19761045E+02 F= -.24895299E+02 E0= -.24814634E+02  EK=  .51343E+01 SP=  .00E+00 SK=  .00E+00 mag=      1.000
       N       E                     dE             d eps       ncg     rms          rms(c)                                      
DAV:   1     -.248868624684E+02     .84229E-02    -.16333E+00 12480    .107E+01     .812E-03                                     
RMM:   2     -.248948310292E+02    -.79686E-02    -.12204E-02 12108    .897E-02     .301E-03                                     
RMM:   3     -.248952956598E+02    -.46463E-03    -.17247E-04  9094    .136E-02     .127E-03                                     
RMM:   4     -.248953786619E+02    -.83002E-04    -.11641E-05  5439    .533E-03     .657E-04                                     
RMM:   5     -.248954966491E+02    -.11799E-03    -.40546E-06  5032    .439E-03     .199E-04                                     
RMM:   6     -.248955116002E+02    -.14951E-04    -.15539E-06  3777    .350E-03                                                  
   18 T=  3056. E= -.19761039E+02 F= -.24895512E+02 E0= -.24814847E+02  EK=  .51345E+01 SP=  .00E+00 SK=  .00E+00 mag=      1.000
       N       E                     dE             d eps       ncg     rms          rms(c)                                      
DAV:   1     -.248878166459E+02     .76800E-02    -.29973E+00 11840    .116E+01     .800E-03                                     
RMM:   2     -.248949989693E+02    -.71823E-02    -.44525E-03 12076    .653E-02     .294E-03                                     
RMM:   3     -.248955385717E+02    -.53960E-03    -.80113E-05  9118    .115E-02     .130E-03                                     
RMM:   4     -.248956062658E+02    -.67694E-04    -.11419E-05  5574    .554E-03     .584E-04                                     
RMM:   5     -.248956807581E+02    -.74492E-04    -.33731E-06  4894    .427E-03     .352E-04                                     
RMM:   6     -.248957028378E+02    -.22080E-04    -.76295E-07  3351    .309E-03                                                  
   19 T=  3056. E= -.19761008E+02 F= -.24895703E+02 E0= -.24815038E+02  EK=  .51347E+01 SP=  .00E+00 SK=  .00E+00 mag=      1.000
       N       E                     dE             d eps       ncg     rms          rms(c)                                      
DAV:   1     -.248855715692E+02     .10109E-01    -.92441E-01 12760    .895E+00     .861E-03                                     
RMM:   2     -.248951606385E+02    -.95891E-02    -.28418E-02 11757    .126E-01     .367E-03                                     
RMM:   3     -.248956685075E+02    -.50787E-03    -.39058E-04  9804    .183E-02     .124E-03                                     
RMM:   4     -.248957520850E+02    -.83578E-04    -.32331E-05  5749    .721E-03     .782E-04                                     
RMM:   5     -.248958522250E+02    -.10014E-03    -.56767E-06  4913    .430E-03     .519E-04                                     
RMM:   6     -.248959320422E+02    -.79817E-04    -.16658E-06  4469    .378E-03     .166E-04                                     
RMM:   7     -.248959523675E+02    -.20325E-04    -.15684E-06  3592    .350E-03                                                  
   20 T=  3056. E= -.19761034E+02 F= -.24895952E+02 E0= -.24815287E+02  EK=  .51349E+01 SP=  .00E+00 SK=  .00E+00 mag=      1.000
       N       E                     dE             d eps       ncg     rms          rms(c)                                      
DAV:   1     -.248816437188E+02     .14288E-01    -.24380E+00 13344    .102E+01     .924E-03                                     
RMM:   2     -.248949686441E+02    -.13325E-01    -.66853E-02 11896    .184E-01     .392E-03                                     
RMM:   3     -.248958534260E+02    -.88478E-03    -.33279E-03  9161    .278E-02     .227E-03                                     
RMM:   4     -.248959024270E+02    -.49001E-04    -.18791E-04  5584    .962E-03     .164E-03                                     
RMM:   5     -.248960589018E+02    -.15647E-03    -.21958E-05  4871    .460E-03     .849E-04                                     
RMM:   6     -.248961256623E+02    -.66761E-04    -.25142E-06  4825    .391E-03     .316E-04                                     
RMM:   7     -.248961586392E+02    -.32977E-04    -.85060E-07  2796    .303E-03     .198E-04                                     
RMM:   8     -.248961812030E+02    -.22564E-04    -.25256E-06  4299    .439E-03                                                  
   21 T=  3056. E= -.19761039E+02 F= -.24896181E+02 E0= -.24815516E+02  EK=  .51351E+01 SP=  .00E+00 SK=  .00E+00 mag=      1.000
       N       E                     dE             d eps       ncg     rms          rms(c)                                      
DAV:   1     -.248882003344E+02     .79583E-02    -.11320E+00 12296    .890E+00     .806E-03                                     
RMM:   2     -.248954834310E+02    -.72831E-02    -.75343E-03 11812    .834E-02     .389E-03                                     
RMM:   3     -.248957729349E+02    -.28950E-03    -.97066E-05  8906    .133E-02     .251E-03                                     
RMM:   4     -.248961105907E+02    -.33766E-03    -.10239E-05  5934    .587E-03     .109E-03                                     
RMM:   5     -.248963440609E+02    -.23347E-03    -.63383E-06  5960    .533E-03     .359E-04                                     
RMM:   6     -.248963797042E+02    -.35643E-04    -.83638E-07  3302    .303E-03     .203E-04                                     
RMM:   7     -.248963952184E+02    -.15514E-04    -.14304E-06  3864    .346E-03                                                  
   22 T=  3056. E= -.19761027E+02 F= -.24896395E+02 E0= -.24815730E+02  EK=  .51354E+01 SP=  .00E+00 SK=  .00E+00 mag=      1.000
       N       E                     dE             d eps       ncg     rms          rms(c)                                      
DAV:   1     -.248864701164E+02     .99096E-02    -.10646E+00 11936    .949E+00     .930E-03                                     
RMM:   2     -.248957439959E+02    -.92739E-02    -.26616E-02 11734    .102E-01     .346E-03                                     
RMM:   3     -.248960714399E+02    -.32744E-03    -.22441E-04  9373    .139E-02     .200E-03                                     
RMM:   4     -.248962750429E+02    -.20360E-03    -.11776E-05  5076    .476E-03     .136E-03                                     
RMM:   5     -.248964705377E+02    -.19549E-03    -.49081E-06  5448    .479E-03     .684E-04                                     
RMM:   6     -.248965817988E+02    -.11126E-03    -.26696E-06  4794    .434E-03     .407E-04                                     
RMM:   7     -.248966191855E+02    -.37387E-04    -.28134E-06  4180    .370E-03     .179E-04                                     
RMM:   8     -.248966309504E+02    -.11765E-04    -.20503E-06  4179    .391E-03                                                  
   23 T=  3056. E= -.19761035E+02 F= -.24896631E+02 E0= -.24815966E+02  EK=  .51356E+01 SP=  .00E+00 SK=  .00E+00 mag=      1.000
       N       E                     dE             d eps       ncg     rms          rms(c)                                      
DAV:   1     -.248876655929E+02     .89536E-02    -.21100E+00 12448    .996E+00     .827E-03                                     
RMM:   2     -.248960958583E+02    -.84303E-02    -.17372E-02 11937    .113E-01     .214E-03                                     
RMM:   3     -.248965917233E+02    -.49586E-03    -.24149E-04  8233    .144E-02     .152E-03                                     
RMM:   4     -.248967036149E+02    -.11189E-03    -.37643E-05  5221    .628E-03     .102E-03                                     
RMM:   5     -.248968054193E+02    -.10180E-03    -.77491E-06  5334    .541E-03     .407E-04                                     
RMM:   6     -.248968301709E+02    -.24752E-04    -.27300E-06  4214    .416E-03                                                  
   24 T=  3056. E= -.19761004E+02 F= -.24896830E+02 E0= -.24816165E+02  EK=  .51358E+01 SP=  .00E+00 SK=  .00E+00 mag=      1.000
       N       E                     dE             d eps       ncg     rms          rms(c)                                      
DAV:   1     -.248895366085E+02     .72688E-02    -.25995E+00 11464    .113E+01     .791E-03                                     
RMM:   2     -.248963793047E+02    -.68427E-02    -.87589E-04 11389    .424E-02     .259E-03                                     
RMM:   3     -.248967056990E+02    -.32639E-03    -.20227E-05  8392    .913E-03     .153E-03                                     
RMM:   4     -.248967784573E+02    -.72758E-04    -.32194E-06  5309    .468E-03     .108E-03                                     
RMM:   5     -.248970003482E+02    -.22189E-03    -.63410E-06  5610    .526E-03     .410E-04                                     
RMM:   6     -.248970862116E+02    -.85863E-04    -.41407E-06  4943    .487E-03     .165E-04                                     
RMM:   7     -.248970884772E+02    -.22656E-05    -.60094E-07  3162    .316E-03                                                  
   25 T=  3056. E= -.19761032E+02 F= -.24897088E+02 E0= -.24816423E+02  EK=  .51361E+01 SP=  .00E+00 SK=  .00E+00 mag=      1.000
       N       E                     dE             d eps       ncg     rms          rms(c)                                      
DAV:   1     -.248876509925E+02     .94352E-02    -.15909E+00 14032    .102E+01     .839E-03                                     
RMM:   2     -.248966128686E+02    -.89619E-02    -.22563E-02 12670    .177E-01     .278E-03                                     
RMM:   3     -.248969950609E+02    -.38219E-03    -.31849E-04  9855    .225E-02     .130E-03                                     
RMM:   4     -.248971407725E+02    -.14571E-03    -.25115E-05  5812    .755E-03     .913E-04                                     
RMM:   5     -.248972799181E+02    -.13915E-03    -.53665E-06  5774    .540E-03     .387E-04                                     
RMM:   6     -.248973093826E+02    -.29464E-04    -.40969E-06  4898    .473E-03                                                  
   26 T=  3057. E= -.19761021E+02 F= -.24897309E+02 E0= -.24816644E+02  EK=  .51363E+01 SP=  .00E+00 SK=  .00E+00 mag=      1.000
       N       E                     dE             d eps       ncg     rms          rms(c)                                      
DAV:   1     -.248884275785E+02     .88523E-02    -.20265E+00 12192    .977E+00     .830E-03                                     
RMM:   2     -.248966719285E+02    -.82444E-02    -.16675E-02 11484    .942E-02     .226E-03                                     
RMM:   3     -.248971518451E+02    -.47992E-03    -.19482E-04  8710    .135E-02     .127E-03                                     
RMM:   4     -.248973260365E+02    -.17419E-03    -.17103E-05  4855    .549E-03     .908E-04                                     
RMM:   5     -.248974655861E+02    -.13955E-03    -.65205E-06  4859    .509E-03     .559E-04                                     
RMM:   6     -.248975379301E+02    -.72344E-04    -.67607E-06  5502    .547E-03     .194E-04                                     
RMM:   7     -.248975472181E+02    -.92880E-05    -.21466E-06  3829    .384E-03                                                  
   27 T=  3057. E= -.19761026E+02 F= -.24897547E+02 E0= -.24816882E+02  EK=  .51365E+01 SP=  .00E+00 SK=  .00E+00 mag=      1.000
       N       E                     dE             d eps       ncg     rms          rms(c)                                      
DAV:   1     -.248888894876E+02     .86484E-02    -.17668E+00 12720    .103E+01     .809E-03                                     
RMM:   2     -.248969892835E+02    -.80998E-02    -.14988E-02 12078    .111E-01     .185E-03                                     
RMM:   3     -.248974601299E+02    -.47085E-03    -.16162E-04  8350    .150E-02     .116E-03                                     
RMM:   4     -.248975860443E+02    -.12591E-03    -.10850E-05  5106    .582E-03     .579E-04                                     
RMM:   5     -.248977600205E+02    -.17398E-03    -.98147E-06  5886    .660E-03     .265E-04                                     
RMM:   6     -.248977703065E+02    -.10286E-04    -.12372E-06  3781    .366E-03                                                  
   28 T=  3057. E= -.19761016E+02 F= -.24897770E+02 E0= -.24817105E+02  EK=  .51368E+01 SP=  .00E+00 SK=  .00E+00 mag=      1.000
       N       E                     dE             d eps       ncg     rms          rms(c)                                      
DAV:   1     -.248897469125E+02     .80131E-02    -.25330E+00 12504    .112E+01     .794E-03                                     
RMM:   2     -.248972862916E+02    -.75394E-02    -.84689E-03 12100    .877E-02     .201E-03                                     
RMM:   3     -.248978185580E+02    -.53227E-03    -.14689E-04  8624    .143E-02     .125E-03                                     
RMM:   4     -.248979022398E+02    -.83682E-04    -.19074E-05  5639    .652E-03     .629E-04                                     
RMM:   5     -.248979809333E+02    -.78693E-04    -.61694E-06  5060    .498E-03     .279E-04                                     
RMM:   6     -.248980097991E+02    -.28866E-04    -.56703E-06  4682    .456E-03                                                  
   29 T=  3057. E= -.19761020E+02 F= -.24898010E+02 E0= -.24817345E+02  EK=  .51370E+01 SP=  .00E+00 SK=  .00E+00 mag=      1.000
       N       E                     dE             d eps       ncg     rms          rms(c)                                      
DAV:   1     -.248903449267E+02     .76360E-02    -.21942E+00 13120    .104E+01     .788E-03                                     
RMM:   2     -.248975628316E+02    -.72179E-02    -.52795E-03 12434    .909E-02     .191E-03                                     
RMM:   3     -.248980579702E+02    -.49514E-03    -.75885E-05  8945    .146E-02     .111E-03                                     
RMM:   4     -.248981782307E+02    -.12026E-03    -.85081E-06  5960    .652E-03     .628E-04                                     
RMM:   5     -.248982315742E+02    -.53344E-04    -.45653E-06  4976    .473E-03     .290E-04                                     
RMM:   6     -.248982443208E+02    -.12747E-04    -.22395E-06  4258    .419E-03                                                  
   30 T=  3057. E= -.19761018E+02 F= -.24898244E+02 E0= -.24817579E+02  EK=  .51372E+01 SP=  .00E+00 SK=  .00E+00 mag=      1.000
       N       E                     dE             d eps       ncg     rms          rms(c)                                      
DAV:   1     -.248888393294E+02     .93922E-02    -.24630E+00 12504    .100E+01     .807E-03                                     
RMM:   2     -.248977665953E+02    -.89273E-02    -.22277E-02 11643    .978E-02     .198E-03                                     
RMM:   3     -.248983261923E+02    -.55960E-03    -.42514E-04  8450    .158E-02     .105E-03                                     
RMM:   4     -.248983791510E+02    -.52959E-04    -.34401E-05  5003    .634E-03     .687E-04                                     
RMM:   5     -.248984467131E+02    -.67562E-04    -.61693E-06  4887    .479E-03     .399E-04                                     
RMM:   6     -.248984757864E+02    -.29073E-04    -.42088E-06  4665    .460E-03                                                  
   31 T=  3057. E= -.19761012E+02 F= -.24898476E+02 E0= -.24817810E+02  EK=  .51375E+01 SP=  .00E+00 SK=  .00E+00 mag=       .999
       N       E                     dE             d eps       ncg     rms          rms(c)                                      
DAV:   1     -.248552582372E+02     .43188E-01    -.26174E+00 12656    .103E+01     .130E-02                                     
RMM:   2     -.249034973811E+02    -.48239E-01    -.41964E-01 12199    .289E-01     .426E-03                                     
RMM:   3     -.248984072267E+02     .50902E-02    -.51900E-03  9561    .418E-02     .284E-03                                     
RMM:   4     -.248985971169E+02    -.18989E-03    -.30689E-04  5822    .118E-02     .214E-03                                     
RMM:   5     -.248986524366E+02    -.55320E-04    -.19430E-05  4542    .483E-03     .149E-03                                     
RMM:   6     -.248986920880E+02    -.39651E-04    -.39957E-06  5162    .455E-03     .676E-04                                     
RMM:   7     -.248987047854E+02    -.12697E-04    -.13607E-06  3698    .344E-03                                                  
   32 T=  3057. E= -.19761003E+02 F= -.24898705E+02 E0= -.24818039E+02  EK=  .51377E+01 SP=  .00E+00 SK=  .00E+00 mag=       .999
       N       E                     dE             d eps       ncg     rms          rms(c)                                      
DAV:   1     -.248882021915E+02     .10490E-01    -.13585E+00 12504    .965E+00     .840E-03                                     
RMM:   2     -.248980140761E+02    -.98119E-02    -.33109E-02 11846    .111E-01     .410E-03                                     
RMM:   3     -.248987163730E+02    -.70230E-03    -.88317E-04  8840    .195E-02     .230E-03                                     
RMM:   4     -.248988405894E+02    -.12422E-03    -.64443E-05  5314    .709E-03     .138E-03                                     
RMM:   5     -.248988419179E+02    -.13285E-05    -.71733E-06  5150    .476E-03                                                  
   33 T=  3058. E= -.19760902E+02 F= -.24898842E+02 E0= -.24818177E+02  EK=  .51379E+01 SP=  .00E+00 SK=  .00E+00 mag=       .999
       N       E                     dE             d eps       ncg     rms          rms(c)                                      
DAV:   1     -.248913835109E+02     .74571E-02    -.21221E+00 12632    .962E+00     .799E-03                                     
RMM:   2     -.248980693180E+02    -.66858E-02    -.26333E-03 11710    .583E-02     .353E-03                                     
RMM:   3     -.248986349667E+02    -.56565E-03    -.70160E-05  8861    .121E-02     .327E-03                                     
RMM:   4     -.248989299283E+02    -.29496E-03    -.14930E-05  6612    .769E-03     .214E-03                                     
RMM:   5     -.248990154755E+02    -.85547E-04    -.32159E-06  5187    .453E-03     .878E-04                                     
RMM:   6     -.248991185448E+02    -.10307E-03    -.97778E-06  5521    .499E-03     .342E-04                                     
RMM:   7     -.248991820620E+02    -.63517E-04    -.20150E-05  5517    .620E-03     .169E-04                                     
RMM:   8     -.248991921317E+02    -.10070E-04    -.65435E-06  4413    .473E-03                                                  
   34 T=  3058. E= -.19761014E+02 F= -.24899192E+02 E0= -.24818527E+02  EK=  .51382E+01 SP=  .00E+00 SK=  .00E+00 mag=       .999
       N       E                     dE             d eps       ncg     rms          rms(c)                                      
DAV:   1     -.248881943676E+02     .10988E-01    -.14413E+00 13992    .956E+00     .848E-03                                     
RMM:   2     -.248988224495E+02    -.10628E-01    -.40393E-02 12124    .153E-01     .352E-03                                     
RMM:   3     -.248991604018E+02    -.33795E-03    -.10230E-03  9070    .245E-02     .238E-03                                     
RMM:   4     -.248991455057E+02     .14896E-04    -.46862E-05  6990    .884E-03                                                  
   35 T=  3058. E= -.19760729E+02 F= -.24899146E+02 E0= -.24818480E+02  EK=  .51384E+01 SP=  .00E+00 SK=  .00E+00 mag=       .999
       N       E                     dE             d eps       ncg     rms          rms(c)                                      
DAV:   1     -.248902858267E+02     .88746E-02    -.22634E+00 13272    .975E+00     .873E-03                                     
RMM:   2     -.248984684715E+02    -.81826E-02    -.17070E-02 12217    .125E-01     .330E-03                                     
RMM:   3     -.248989224532E+02    -.45398E-03    -.30291E-04  8639    .171E-02     .199E-03                                     
RMM:   4     -.248993645415E+02    -.44209E-03    -.35835E-05  7160    .912E-03     .891E-04                                     
RMM:   5     -.248995299884E+02    -.16545E-03    -.17266E-05  6432    .838E-03     .414E-04                                     
RMM:   6     -.248996082475E+02    -.78259E-04    -.15675E-05  5250    .650E-03     .216E-04                                     
RMM:   7     -.248996568851E+02    -.48638E-04    -.25457E-05  5584    .695E-03     .111E-04                                     
RMM:   8     -.248996639289E+02    -.70438E-05    -.56162E-06  3947    .413E-03                                                  
   36 T=  3058. E= -.19761009E+02 F= -.24899664E+02 E0= -.24818998E+02  EK=  .51387E+01 SP=  .00E+00 SK=  .00E+00 mag=       .999
       N       E                     dE             d eps       ncg     rms          rms(c)                                      
DAV:   1     -.248924345219E+02     .72224E-02    -.17668E+00 13816    .958E+00     .772E-03                                     
RMM:   2     -.248991061446E+02    -.66716E-02    -.51320E-03 12234    .695E-02     .207E-03                                     
RMM:   3     -.248995571627E+02    -.45102E-03    -.16942E-04  8354    .145E-02     .153E-03                                     
RMM:   4     -.248996118859E+02    -.54723E-04    -.18108E-05  5759    .636E-03     .982E-04                                     
RMM:   5     -.248997630439E+02    -.15116E-03    -.91414E-06  5026    .539E-03     .584E-04                                     
RMM:   6     -.248998918395E+02    -.12880E-03    -.15902E-05  5665    .709E-03     .291E-04                                     
RMM:   7     -.248999094307E+02    -.17591E-04    -.58102E-06  4930    .597E-03                                                  
   37 T=  3058. E= -.19761015E+02 F= -.24899909E+02 E0= -.24819243E+02  EK=  .51389E+01 SP=  .00E+00 SK=  .00E+00 mag=       .999
       N       E                     dE             d eps       ncg     rms          rms(c)                                      
DAV:   1     -.248923554000E+02     .75364E-02    -.17202E+00 13448    .959E+00     .810E-03                                     
RMM:   2     -.248994458106E+02    -.70904E-02    -.51739E-03 11862    .682E-02     .218E-03                                     
RMM:   3     -.248996487628E+02    -.20295E-03    -.10948E-04  8681    .139E-02     .118E-03                                     
RMM:   4     -.248998408965E+02    -.19213E-03    -.14585E-05  5622    .603E-03     .716E-04                                     
RMM:   5     -.249000571430E+02    -.21625E-03    -.41213E-05  6378    .960E-03     .296E-04                                     
RMM:   6     -.249001268916E+02    -.69749E-04    -.16855E-05  5174    .771E-03     .174E-04                                     
RMM:   7     -.249001458646E+02    -.18973E-04    -.43950E-06  3767    .375E-03                                                  
   38 T=  3058. E= -.19761013E+02 F= -.24900146E+02 E0= -.24819480E+02  EK=  .51391E+01 SP=  .00E+00 SK=  .00E+00 mag=       .999
       N       E                     dE             d eps       ncg     rms          rms(c)                                      
DAV:   1     -.248897433037E+02     .10384E-01    -.15413E+00 13496    .983E+00     .867E-03                                     
RMM:   2     -.248998055694E+02    -.10062E-01    -.33573E-02 12570    .154E-01     .231E-03                                     
RMM:   3     -.249001620371E+02    -.35647E-03    -.48195E-04  9162    .238E-02     .156E-03                                     
RMM:   4     -.249002735529E+02    -.11152E-03    -.32320E-05  5595    .708E-03     .112E-03                                     
RMM:   5     -.249003574597E+02    -.83907E-04    -.19258E-05  5592    .677E-03     .610E-04                                     
RMM:   6     -.249003810570E+02    -.23597E-04    -.75271E-06  5197    .606E-03                                                  
   39 T=  3058. E= -.19761009E+02 F= -.24900381E+02 E0= -.24819715E+02  EK=  .51394E+01 SP=  .00E+00 SK=  .00E+00 mag=       .999
       N       E                     dE             d eps       ncg     rms          rms(c)                                      
DAV:   1     -.248910745673E+02     .92829E-02    -.17395E+00 13736    .915E+00     .813E-03                                     
RMM:   2     -.248999406151E+02    -.88660E-02    -.22988E-02 12140    .114E-01     .201E-03                                     
RMM:   3     -.249003144659E+02    -.37385E-03    -.37526E-04  8523    .191E-02     .129E-03                                     
RMM:   4     -.249004975020E+02    -.18304E-03    -.26424E-05  5490    .672E-03     .729E-04                                     
RMM:   5     -.249005947918E+02    -.97290E-04    -.19490E-05  6112    .796E-03     .270E-04                                     
RMM:   6     -.249006124301E+02    -.17638E-04    -.75936E-06  4898    .565E-03                                                  
   40 T=  3059. E= -.19761003E+02 F= -.24900612E+02 E0= -.24819946E+02  EK=  .51396E+01 SP=  .00E+00 SK=  .00E+00 mag=       .998
       N       E                     dE             d eps       ncg     rms          rms(c)                                      
DAV:   1     -.248927264977E+02     .78683E-02    -.15078E+00 13472    .989E+00     .800E-03                                     
RMM:   2     -.249002644056E+02    -.75379E-02    -.99445E-03 12141    .757E-02     .209E-03                                     
RMM:   3     -.249005774797E+02    -.31307E-03    -.16361E-04  8188    .169E-02     .122E-03                                     
RMM:   4     -.249006808731E+02    -.10339E-03    -.17465E-05  5427    .595E-03     .911E-04                                     
RMM:   5     -.249008127676E+02    -.13189E-03    -.98061E-06  5718    .640E-03     .422E-04                                     
RMM:   6     -.249008532366E+02    -.40469E-04    -.26426E-05  5734    .842E-03     .197E-04                                     
RMM:   7     -.249008560566E+02    -.28200E-05    -.43164E-06  3817    .434E-03                                                  
   41 T=  3059. E= -.19761008E+02 F= -.24900856E+02 E0= -.24820190E+02  EK=  .51398E+01 SP=  .00E+00 SK=  .00E+00 mag=       .998
       N       E                     dE             d eps       ncg     rms          rms(c)                                      
DAV:   1     -.248846989895E+02     .16154E-01    -.50658E+00 14176    .989E+00     .105E-02                                     
RMM:   2     -.249010356757E+02    -.16337E-01    -.97813E-02 12580    .188E-01     .372E-03                                     
RMM:   3     -.249009773230E+02     .58353E-04    -.14329E-03  9077    .264E-02     .237E-03                                     
RMM:   4     -.249010542720E+02    -.76949E-04    -.82258E-05  5645    .895E-03     .170E-03                                     
RMM:   5     -.249010852434E+02    -.30971E-04    -.11465E-05  4861    .525E-03     .113E-03                                     
RMM:   6     -.249010906251E+02    -.53816E-05    -.12716E-06  4146    .386E-03                                                  
   42 T=  3059. E= -.19761005E+02 F= -.24901091E+02 E0= -.24820424E+02  EK=  .51401E+01 SP=  .00E+00 SK=  .00E+00 mag=       .998
       N       E                     dE             d eps       ncg     rms          rms(c)                                      
DAV:   1     -.248931284670E+02     .79568E-02    -.16513E+00 13976    .940E+00     .805E-03                                     
RMM:   2     -.249007705018E+02    -.76420E-02    -.11957E-02 12637    .974E-02     .325E-03                                     
RMM:   3     -.249011004327E+02    -.32993E-03    -.24551E-04  8902    .170E-02     .255E-03                                     
RMM:   4     -.249012987699E+02    -.19834E-03    -.10468E-04  7194    .122E-02     .123E-03                                     
RMM:   5     -.249013301016E+02    -.31332E-04    -.17568E-05  6020    .778E-03     .484E-04                                     
RMM:   6     -.249013325549E+02    -.24533E-05    -.16957E-06  3502    .368E-03                                                  
   43 T=  3059. E= -.19761010E+02 F= -.24901333E+02 E0= -.24820666E+02  EK=  .51403E+01 SP=  .00E+00 SK=  .00E+00 mag=       .998
       N       E                     dE             d eps       ncg     rms          rms(c)                                      
DAV:   1     -.248925516257E+02     .87785E-02    -.13834E+00 14416    .889E+00     .815E-03                                     
RMM:   2     -.249009725813E+02    -.84210E-02    -.21015E-02 12537    .146E-01     .306E-03                                     
RMM:   3     -.249012382584E+02    -.26568E-03    -.31363E-04  9570    .254E-02     .260E-03                                     
RMM:   4     -.249014516995E+02    -.21344E-03    -.56747E-05  6868    .104E-02     .190E-03                                     
RMM:   5     -.249015228534E+02    -.71154E-04    -.26504E-05  5971    .807E-03     .112E-03                                     
RMM:   6     -.249015514054E+02    -.28552E-04    -.11275E-05  4975    .599E-03                                                  
   44 T=  3059. E= -.19760992E+02 F= -.24901551E+02 E0= -.24820884E+02  EK=  .51406E+01 SP=  .00E+00 SK=  .00E+00 mag=       .998
       N       E                     dE             d eps       ncg     rms          rms(c)                                      
DAV:   1     -.248941301271E+02     .73927E-02    -.17131E+00 13448    .887E+00     .801E-03                                     
RMM:   2     -.249011272286E+02    -.69971E-02    -.59779E-03 12129    .809E-02     .277E-03                                     
RMM:   3     -.249015256345E+02    -.39841E-03    -.90178E-05  8129    .137E-02     .163E-03                                     
RMM:   4     -.249016854567E+02    -.15982E-03    -.18012E-05  6170    .779E-03     .580E-04                                     
RMM:   5     -.249017852719E+02    -.99815E-04    -.94092E-05  6655    .130E-02     .269E-04                                     
RMM:   6     -.249017927326E+02    -.74606E-05    -.13997E-05  4991    .640E-03                                                  
   45 T=  3059. E= -.19760996E+02 F= -.24901793E+02 E0= -.24821126E+02  EK=  .51408E+01 SP=  .00E+00 SK=  .00E+00 mag=       .998
       N       E                     dE             d eps       ncg     rms          rms(c)                                      
DAV:   1     -.248940172098E+02     .77681E-02    -.11194E+00 13496    .105E+01     .793E-03                                     
RMM:   2     -.249015543774E+02    -.75372E-02    -.12726E-02 12521    .946E-02     .209E-03                                     
RMM:   3     -.249019313535E+02    -.37698E-03    -.25286E-04  8603    .162E-02     .129E-03                                     
RMM:   4     -.249020021214E+02    -.70768E-04    -.45135E-05  6072    .825E-03     .936E-04                                     
RMM:   5     -.249020232314E+02    -.21110E-04    -.14637E-05  5583    .625E-03                                                  
   46 T=  3059. E= -.19760990E+02 F= -.24902023E+02 E0= -.24821356E+02  EK=  .51410E+01 SP=  .00E+00 SK=  .00E+00 mag=       .997
       N       E                     dE             d eps       ncg     rms          rms(c)                                      
DAV:   1     -.248940848700E+02     .79173E-02    -.27148E+00 14864    .114E+01     .811E-03                                     
RMM:   2     -.249018193165E+02    -.77344E-02    -.12900E-02 13137    .121E-01     .268E-03                                     
RMM:   3     -.249019696449E+02    -.15033E-03    -.44145E-04  9930    .285E-02     .142E-03                                     
RMM:   4     -.249020902495E+02    -.12060E-03    -.23183E-05  6240    .719E-03     .872E-04                                     
RMM:   5     -.249022236104E+02    -.13336E-03    -.10128E-04  6783    .130E-02     .420E-04                                     
RMM:   6     -.249022533601E+02    -.29750E-04    -.27807E-05  5453    .866E-03                                                  
   47 T=  3060. E= -.19760984E+02 F= -.24902253E+02 E0= -.24821586E+02  EK=  .51413E+01 SP=  .00E+00 SK=  .00E+00 mag=       .997
       N       E                     dE             d eps       ncg     rms          rms(c)                                      
DAV:   1     -.248956115551E+02     .66121E-02    -.28911E+00 13888    .938E+00     .780E-03                                     
RMM:   2     -.249019183652E+02    -.63068E-02    -.31285E-03 12629    .702E-02     .230E-03                                     
RMM:   3     -.249023685923E+02    -.45023E-03    -.57925E-05  8670    .128E-02     .124E-03                                     
RMM:   4     -.249024695030E+02    -.10091E-03    -.17158E-05  5796    .638E-03     .611E-04                                     
RMM:   5     -.249024906627E+02    -.21160E-04    -.93056E-06  5360    .617E-03                                                  
   48 T=  3060. E= -.19760988E+02 F= -.24902491E+02 E0= -.24821823E+02  EK=  .51415E+01 SP=  .00E+00 SK=  .00E+00 mag=       .997
       N       E                     dE             d eps       ncg     rms          rms(c)                                      
DAV:   1     -.248959820242E+02     .64875E-02    -.10972E+00 14096    .939E+00     .790E-03                                     
RMM:   2     -.249024339576E+02    -.64519E-02    -.20250E-03 12659    .604E-02     .200E-03                                     
RMM:   3     -.249026593592E+02    -.22540E-03    -.29492E-05  8506    .101E-02     .115E-03                                     
RMM:   4     -.249026893493E+02    -.29990E-04    -.17765E-05  5961    .688E-03                                                  
   49 T=  3060. E= -.19760955E+02 F= -.24902689E+02 E0= -.24822021E+02  EK=  .51417E+01 SP=  .00E+00 SK=  .00E+00 mag=       .997
       N       E                     dE             d eps       ncg     rms          rms(c)                                      
DAV:   1     -.248961993324E+02     .64600E-02    -.29432E+00 13912    .991E+00     .801E-03                                     
RMM:   2     -.249026613443E+02    -.64620E-02    -.54811E-03 12456    .815E-02     .231E-03                                     
RMM:   3     -.249029083511E+02    -.24701E-03    -.15109E-04  9087    .162E-02     .128E-03                                     
RMM:   4     -.249029307063E+02    -.22355E-04    -.77681E-06  5598    .535E-03                                                  
   50 T=  3060. E= -.19760964E+02 F= -.24902931E+02 E0= -.24822262E+02  EK=  .51420E+01 SP=  .00E+00 SK=  .00E+00 mag=       .996
       N       E                     dE             d eps       ncg     rms          rms(c)                                      
DAV:   1     -.248959657159E+02     .69426E-02    -.32149E+00 14544    .103E+01     .813E-03                                     
RMM:   2     -.249029405385E+02    -.69748E-02    -.85387E-03 12931    .959E-02     .298E-03                                     
RMM:   3     -.249031440190E+02    -.20348E-03    -.12218E-04  9328    .140E-02     .125E-03                                     
RMM:   4     -.249031608671E+02    -.16848E-04    -.86634E-06  5312    .522E-03                                                  
   51 T=  3060. E= -.19760959E+02 F= -.24903161E+02 E0= -.24822492E+02  EK=  .51422E+01 SP=  .00E+00 SK=  .00E+00 mag=       .996
       N       E                     dE             d eps       ncg     rms          rms(c)                                      
DAV:   1     -.248780920601E+02     .25052E-01    -.35748E+00 14416    .952E+00     .104E-02                                     
RMM:   2     -.249056739325E+02    -.27582E-01    -.21308E-01 12883    .178E-01     .395E-03                                     
RMM:   3     -.249033260786E+02     .23479E-02    -.28386E-03 10721    .380E-02     .236E-03                                     
RMM:   4     -.249033556165E+02    -.29538E-04    -.97170E-05  6261    .817E-03                                                  
   52 T=  3060. E= -.19760916E+02 F= -.24903356E+02 E0= -.24822686E+02  EK=  .51424E+01 SP=  .00E+00 SK=  .00E+00 mag=       .996
       N       E                     dE             d eps       ncg     rms          rms(c)                                      
DAV:   1     -.248956796913E+02     .76464E-02    -.14563E+00 15360    .898E+00     .909E-03                                     
RMM:   2     -.249030791366E+02    -.73994E-02    -.18532E-02 13143    .133E-01     .291E-03                                     
RMM:   3     -.249032448705E+02    -.16573E-03    -.29830E-04  9296    .211E-02     .227E-03                                     
RMM:   4     -.249034782076E+02    -.23334E-03    -.13185E-04  8093    .158E-02     .149E-03                                     
RMM:   5     -.249036316117E+02    -.15340E-03    -.15666E-04  7917    .180E-02     .665E-04                                     
RMM:   6     -.249036456977E+02    -.14086E-04    -.80261E-06  5098    .513E-03                                                  
   53 T=  3060. E= -.19760969E+02 F= -.24903646E+02 E0= -.24822976E+02  EK=  .51427E+01 SP=  .00E+00 SK=  .00E+00 mag=       .995
       N       E                     dE             d eps       ncg     rms          rms(c)                                      
DAV:   1     -.248965093922E+02     .71222E-02    -.18195E+00 14480    .875E+00     .851E-03                                     
RMM:   2     -.249030512813E+02    -.65419E-02    -.11807E-02 12725    .902E-02     .330E-03                                     
RMM:   3     -.249036664662E+02    -.61518E-03    -.41596E-04  8992    .219E-02     .198E-03                                     
RMM:   4     -.249037919672E+02    -.12550E-03    -.12144E-04  6809    .111E-02     .125E-03                                     
RMM:   5     -.249038529377E+02    -.60970E-04    -.55338E-05  6294    .772E-03     .470E-04                                     
RMM:   6     -.249038702235E+02    -.17286E-04    -.28440E-06  4099    .371E-03                                                  
   54 T=  3061. E= -.19760960E+02 F= -.24903870E+02 E0= -.24823200E+02  EK=  .51429E+01 SP=  .00E+00 SK=  .00E+00 mag=       .995
       N       E                     dE             d eps       ncg     rms          rms(c)                                      
DAV:   1     -.248975824343E+02     .62705E-02    -.29176E+00 15040    .971E+00     .815E-03                                     
RMM:   2     -.249037786988E+02    -.61963E-02    -.65582E-03 12798    .854E-02     .270E-03                                     
RMM:   3     -.249040647143E+02    -.28602E-03    -.10786E-04  8992    .138E-02     .166E-03                                     
RMM:   4     -.249040807352E+02    -.16021E-04    -.17320E-05  6102    .730E-03                                                  
   55 T=  3061. E= -.19760940E+02 F= -.24904081E+02 E0= -.24823409E+02  EK=  .51431E+01 SP=  .00E+00 SK=  .00E+00 mag=       .995
       N       E                     dE             d eps       ncg     rms          rms(c)                                      
DAV:   1     -.248985272446E+02     .55375E-02    -.21266E+00 14400    .108E+01     .813E-03                                     
RMM:   2     -.249042139392E+02    -.56867E-02    -.44732E-03 13093    .839E-02     .259E-03                                     
RMM:   3     -.249042881418E+02    -.74203E-04    -.49726E-05  8742    .101E-02     .156E-03                                     
RMM:   4     -.249043082478E+02    -.20106E-04    -.56293E-06  5092    .486E-03                                                  
   56 T=  3061. E= -.19760934E+02 F= -.24904308E+02 E0= -.24823636E+02  EK=  .51434E+01 SP=  .00E+00 SK=  .00E+00 mag=       .994
       N       E                     dE             d eps       ncg     rms          rms(c)                                      
DAV:   1     -.248985404164E+02     .57477E-02    -.36324E+00 14584    .108E+01     .847E-03                                     
RMM:   2     -.249042071117E+02    -.56667E-02    -.33377E-03 13318    .826E-02     .270E-03                                     
RMM:   3     -.249045156563E+02    -.30854E-03    -.13960E-04  9523    .165E-02     .171E-03                                     
RMM:   4     -.249045172836E+02    -.16273E-05    -.46679E-05  7318    .102E-02                                                  
   57 T=  3061. E= -.19760906E+02 F= -.24904517E+02 E0= -.24823845E+02  EK=  .51436E+01 SP=  .00E+00 SK=  .00E+00 mag=       .994
       N       E                     dE             d eps       ncg     rms          rms(c)                                      
DAV:   1     -.248962733147E+02     .82423E-02    -.24986E+00 15248    .105E+01     .850E-03                                     
RMM:   2     -.249043534589E+02    -.80801E-02    -.28014E-02 13415    .160E-01     .260E-03                                     
RMM:   3     -.249047116896E+02    -.35823E-03    -.89334E-04  9833    .268E-02     .135E-03                                     
RMM:   4     -.249047308556E+02    -.19166E-04    -.61500E-05  6635    .103E-02                                                  
   58 T=  3061. E= -.19760883E+02 F= -.24904731E+02 E0= -.24824059E+02  EK=  .51438E+01 SP=  .00E+00 SK=  .00E+00 mag=       .994
       N       E                     dE             d eps       ncg     rms          rms(c)                                      
DAV:   1     -.248975412426E+02     .71704E-02    -.16953E+00 15272    .106E+01     .818E-03                                     
RMM:   2     -.249047502126E+02    -.72090E-02    -.15935E-02 13113    .129E-01     .256E-03                                     
RMM:   3     -.249049604554E+02    -.21024E-03    -.27979E-04  9586    .198E-02     .143E-03                                     
RMM:   4     -.249049971998E+02    -.36744E-04    -.25194E-05  6443    .701E-03     .903E-04                                     
RMM:   5     -.249050255459E+02    -.28346E-04    -.10901E-05  5926    .514E-03                                                  
   59 T=  3061. E= -.19760940E+02 F= -.24905026E+02 E0= -.24824351E+02  EK=  .51441E+01 SP=  .00E+00 SK=  .00E+00 mag=       .993
       N       E                     dE             d eps       ncg     rms          rms(c)                                      
DAV:   1     -.248963851847E+02     .86120E-02    -.48667E+00 15272    .113E+01     .908E-03                                     
RMM:   2     -.249050728930E+02    -.86877E-02    -.45597E-02 13809    .198E-01     .250E-03                                     
RMM:   3     -.249052413709E+02    -.16848E-03    -.72062E-04  9623    .223E-02     .149E-03                                     
RMM:   4     -.249052567804E+02    -.15409E-04    -.41174E-05  5543    .688E-03                                                  
   60 T=  3061. E= -.19760932E+02 F= -.24905257E+02 E0= -.24824582E+02  EK=  .51443E+01 SP=  .00E+00 SK=  .00E+00 mag=       .992
       N       E                     dE             d eps       ncg     rms          rms(c)                                      
DAV:   1     -.248980192342E+02     .72221E-02    -.26357E+00 14864    .103E+01     .924E-03                                     
RMM:   2     -.249053091275E+02    -.72899E-02    -.25752E-02 13251    .169E-01     .309E-03                                     
RMM:   3     -.249054633747E+02    -.15425E-03    -.34723E-04  9840    .222E-02     .187E-03                                     
RMM:   4     -.249054836772E+02    -.20303E-04    -.17810E-05  5774    .628E-03                                                  
   61 T=  3062. E= -.19760915E+02 F= -.24905484E+02 E0= -.24824808E+02  EK=  .51446E+01 SP=  .00E+00 SK=  .00E+00 mag=       .992
       N       E                     dE             d eps       ncg     rms          rms(c)                                      
DAV:   1     -.248989232031E+02     .65402E-02    -.25564E+00 15816    .959E+00     .819E-03                                     
RMM:   2     -.249055481333E+02    -.66249E-02    -.19402E-02 13375    .149E-01     .273E-03                                     
RMM:   3     -.249056648786E+02    -.11675E-03    -.34890E-04  9402    .205E-02     .166E-03                                     
RMM:   4     -.249057034665E+02    -.38588E-04    -.27376E-05  5944    .655E-03     .977E-04                                     
RMM:   5     -.249057326102E+02    -.29144E-04    -.63676E-06  5287    .458E-03                                                  
   62 T=  3062. E= -.19760918E+02 F= -.24905733E+02 E0= -.24825056E+02  EK=  .51448E+01 SP=  .00E+00 SK=  .00E+00 mag=       .991
       N       E                     dE             d eps       ncg     rms          rms(c)                                      
DAV:   1     -.248993381302E+02     .63653E-02    -.42020E+00 14984    .114E+01     .855E-03                                     
RMM:   2     -.249057602294E+02    -.64221E-02    -.19271E-02 13573    .138E-01     .275E-03                                     
RMM:   3     -.249059453377E+02    -.18511E-03    -.49196E-04  9723    .232E-02     .173E-03                                     
RMM:   4     -.249059630533E+02    -.17716E-04    -.30610E-05  6415    .679E-03                                                  
   63 T=  3062. E= -.19760902E+02 F= -.24905963E+02 E0= -.24825286E+02  EK=  .51451E+01 SP=  .00E+00 SK=  .00E+00 mag=       .991
       N       E                     dE             d eps       ncg     rms          rms(c)                                      
DAV:   1     -.248973750121E+02     .85703E-02    -.31143E+00 15752    .110E+01     .887E-03                                     
RMM:   2     -.249060202697E+02    -.86453E-02    -.46209E-02 13775    .212E-01     .378E-03                                     
RMM:   3     -.249061807819E+02    -.16051E-03    -.78640E-04 10090    .246E-02     .175E-03                                     
RMM:   4     -.249062154923E+02    -.34710E-04    -.73357E-05  6127    .802E-03     .115E-03                                     
RMM:   5     -.249062295722E+02    -.14080E-04    -.82625E-06  5190    .448E-03                                                  
   64 T=  3062. E= -.19760918E+02 F= -.24906230E+02 E0= -.24825551E+02  EK=  .51453E+01 SP=  .00E+00 SK=  .00E+00 mag=       .990
       N       E                     dE             d eps       ncg     rms          rms(c)                                      
DAV:   1     -.249005906904E+02     .56248E-02    -.25916E+00 15144    .956E+00     .845E-03                                     
RMM:   2     -.249063700756E+02    -.57794E-02    -.19883E-02 13373    .127E-01     .306E-03                                     
RMM:   3     -.249064625761E+02    -.92501E-04    -.50474E-04  9129    .145E-02     .185E-03                                     
RMM:   4     -.249064723475E+02    -.97714E-05    -.25232E-05  4961    .507E-03                                                  
   65 T=  3062. E= -.19760903E+02 F= -.24906472E+02 E0= -.24825793E+02  EK=  .51456E+01 SP=  .00E+00 SK=  .00E+00 mag=       .990
       N       E                     dE             d eps       ncg     rms          rms(c)                                      
DAV:   1     -.249018232814E+02     .46393E-02    -.30316E+00 15104    .938E+00     .882E-03                                     
RMM:   2     -.249066050336E+02    -.47818E-02    -.51630E-03 13378    .107E-01     .367E-03                                     
RMM:   3     -.249066967169E+02    -.91683E-04    -.10757E-04  9719    .158E-02     .228E-03                                     
RMM:   4     -.249067229849E+02    -.26268E-04    -.88231E-06  5983    .549E-03                                                  
   66 T=  3062. E= -.19760887E+02 F= -.24906723E+02 E0= -.24826043E+02  EK=  .51458E+01 SP=  .00E+00 SK=  .00E+00 mag=       .989
       N       E                     dE             d eps       ncg     rms          rms(c)                                      
DAV:   1     -.249014681651E+02     .52286E-02    -.29847E+00 15120    .846E+00     .811E-03                                     
RMM:   2     -.249066703964E+02    -.52022E-02    -.17610E-02 12885    .143E-01     .350E-03                                     
RMM:   3     -.249069033152E+02    -.23292E-03    -.43226E-04  9503    .228E-02     .217E-03                                     
RMM:   4     -.249069452906E+02    -.41975E-04    -.52118E-05  7682    .991E-03     .108E-03                                     
RMM:   5     -.249069987067E+02    -.53416E-04    -.28712E-05  6063    .717E-03     .459E-04                                     
RMM:   6     -.249070068592E+02    -.81525E-05    -.44336E-06  4804    .442E-03                                                  
   67 T=  3062. E= -.19760902E+02 F= -.24907007E+02 E0= -.24826325E+02  EK=  .51461E+01 SP=  .00E+00 SK=  .00E+00 mag=       .988
       N       E                     dE             d eps       ncg     rms          rms(c)                                      
DAV:   1     -.249035877127E+02     .34110E-02    -.30969E+00 14632    .996E+00     .848E-03                                     
RMM:   2     -.249072148524E+02    -.36271E-02    -.67335E-03 13143    .117E-01     .296E-03                                     
RMM:   3     -.249072535546E+02    -.38702E-04    -.55619E-05  8423    .102E-02     .203E-03                                     
RMM:   4     -.249072736555E+02    -.20101E-04    -.62725E-06  5769    .538E-03                                                  
   68 T=  3063. E= -.19760895E+02 F= -.24907274E+02 E0= -.24826590E+02  EK=  .51464E+01 SP=  .00E+00 SK=  .00E+00 mag=       .987
       N       E                     dE             d eps       ncg     rms          rms(c)                                      
DAV:   1     -.248927213035E+02     .14532E-01    -.18176E+00 16120    .109E+01     .137E-02                                     
RMM:   2     -.249073095068E+02    -.14588E-01    -.11670E-01 13879    .324E-01     .647E-03                                     
RMM:   3     -.249075101938E+02    -.20069E-03    -.15220E-03 10818    .331E-02     .295E-03                                     
RMM:   4     -.249075469901E+02    -.36796E-04    -.17177E-04  6455    .989E-03     .231E-03                                     
RMM:   5     -.249075559568E+02    -.89667E-05    -.95095E-06  5435    .474E-03                                                  
   69 T=  3063. E= -.19760893E+02 F= -.24907556E+02 E0= -.24826871E+02  EK=  .51467E+01 SP=  .00E+00 SK=  .00E+00 mag=       .986
       N       E                     dE             d eps       ncg     rms          rms(c)                                      
DAV:   1     -.249044025006E+02     .31445E-02    -.38409E+00 14624    .121E+01     .859E-03                                     
RMM:   2     -.249077297924E+02    -.33273E-02    -.48289E-03 13535    .113E-01     .397E-03                                     
RMM:   3     -.249078061334E+02    -.76341E-04    -.77193E-05 10010    .150E-02     .163E-03                                     
RMM:   4     -.249078364274E+02    -.30294E-04    -.70099E-06  5885    .531E-03     .730E-04                                     
RMM:   5     -.249078473894E+02    -.10962E-04    -.36025E-06  4970    .436E-03                                                  
   70 T=  3063. E= -.19760890E+02 F= -.24907847E+02 E0= -.24827161E+02  EK=  .51470E+01 SP=  .00E+00 SK=  .00E+00 mag=       .986
       N       E                     dE             d eps       ncg     rms          rms(c)                                      
DAV:   1     -.249043756026E+02     .34608E-02    -.39575E+00 14608    .121E+01     .826E-03                                     
RMM:   2     -.249080557386E+02    -.36801E-02    -.89797E-03 13925    .133E-01     .540E-03                                     
RMM:   3     -.249081413452E+02    -.85607E-04    -.16874E-04 10294    .172E-02     .354E-03                                     
RMM:   4     -.249081448951E+02    -.35499E-05    -.89882E-06  5967    .558E-03                                                  
   71 T=  3063. E= -.19760884E+02 F= -.24908145E+02 E0= -.24827458E+02  EK=  .51473E+01 SP=  .00E+00 SK=  .00E+00 mag=       .985
       N       E                     dE             d eps       ncg     rms          rms(c)                                      
DAV:   1     -.248956755935E+02     .12466E-01    -.56629E+00 15424    .125E+01     .124E-02                                     
RMM:   2     -.249090784015E+02    -.13403E-01    -.10981E-01 13837    .235E-01     .674E-03                                     
RMM:   3     -.249084474763E+02     .63093E-03    -.11169E-03 10246    .250E-02     .518E-03                                     
RMM:   4     -.249084565578E+02    -.90815E-05    -.35888E-05  5931    .734E-03                                                  
   72 T=  3063. E= -.19760877E+02 F= -.24908457E+02 E0= -.24827768E+02  EK=  .51476E+01 SP=  .00E+00 SK=  .00E+00 mag=       .984
       N       E                     dE             d eps       ncg     rms          rms(c)                                      
DAV:   1     -.249022475081E+02     .62000E-02    -.24541E+00 15632    .117E+01     .130E-02                                     
RMM:   2     -.249085838581E+02    -.63364E-02    -.42971E-02 14527    .232E-01     .353E-03                                     
RMM:   3     -.249087055400E+02    -.12168E-03    -.51297E-04 10113    .220E-02     .204E-03                                     
RMM:   4     -.249087492900E+02    -.43750E-04    -.33037E-05  6395    .773E-03     .172E-03                                     
RMM:   5     -.249087909625E+02    -.41673E-04    -.11911E-05  6988    .691E-03     .527E-04                                     
RMM:   6     -.249087928494E+02    -.18869E-05    -.83499E-07  3847    .332E-03                                                  
   73 T=  3064. E= -.19760879E+02 F= -.24908793E+02 E0= -.24828102E+02  EK=  .51479E+01 SP=  .00E+00 SK=  .00E+00 mag=       .982
       N       E                     dE             d eps       ncg     rms          rms(c)                                      
DAV:   1     -.249034675416E+02     .53234E-02    -.30149E+00 15984    .105E+01     .106E-02                                     
RMM:   2     -.249089756266E+02    -.55081E-02    -.39023E-02 14586    .223E-01     .599E-03                                     
RMM:   3     -.249091118433E+02    -.13622E-03    -.82586E-04 10435    .259E-02     .292E-03                                     
RMM:   4     -.249091350227E+02    -.23179E-04    -.76436E-05  8618    .101E-02                                                  
   74 T=  3064. E= -.19760873E+02 F= -.24909135E+02 E0= -.24828443E+02  EK=  .51483E+01 SP=  .00E+00 SK=  .00E+00 mag=       .981
       N       E                     dE             d eps       ncg     rms          rms(c)                                      
DAV:   1     -.249053901471E+02     .37217E-02    -.12421E+00 15176    .966E+00     .912E-03                                     
RMM:   2     -.249094346813E+02    -.40445E-02    -.20613E-02 13442    .164E-01     .317E-03                                     
RMM:   3     -.249094894759E+02    -.54795E-04    -.25520E-04  9413    .163E-02     .227E-03                                     
RMM:   4     -.249094978779E+02    -.84020E-05    -.18362E-05  5992    .615E-03                                                  
   75 T=  3064. E= -.19760867E+02 F= -.24909498E+02 E0= -.24828804E+02  EK=  .51486E+01 SP=  .00E+00 SK=  .00E+00 mag=       .980
       N       E                     dE             d eps       ncg     rms          rms(c)                                      
DAV:   1     -.249079178132E+02     .15717E-02    -.17825E+00 14504    .962E+00     .814E-03                                     
RMM:   2     -.249098539306E+02    -.19361E-02    -.77140E-03 13154    .111E-01     .345E-03                                     
RMM:   3     -.249098846732E+02    -.30743E-04    -.82183E-05  9561    .119E-02     .195E-03                                     
RMM:   4     -.249098905001E+02    -.58270E-05    -.52563E-06  5818    .502E-03                                                  
   76 T=  3064. E= -.19760866E+02 F= -.24909891E+02 E0= -.24829194E+02  EK=  .51490E+01 SP=  .00E+00 SK=  .00E+00 mag=       .979
       N       E                     dE             d eps       ncg     rms          rms(c)                                      
DAV:   1     -.249095450623E+02     .33961E-03    -.22421E+00 13256    .107E+01     .765E-03                                     
RMM:   2     -.249102615174E+02    -.71646E-03    -.82263E-04 12942    .552E-02     .477E-03                                     
RMM:   3     -.249102859937E+02    -.24476E-04    -.16988E-05  9542    .874E-03                                                  
   77 T=  3064. E= -.19760844E+02 F= -.24910286E+02 E0= -.24829588E+02  EK=  .51494E+01 SP=  .00E+00 SK=  .00E+00 mag=       .977
       N       E                     dE             d eps       ncg     rms          rms(c)                                      
DAV:   1     -.249084852415E+02     .17763E-02    -.12449E+00 13168    .103E+01     .867E-03                                     
RMM:   2     -.249106306429E+02    -.21454E-02    -.14320E-02 13302    .942E-02     .508E-03                                     
RMM:   3     -.249106821341E+02    -.51491E-04    -.18025E-04  9840    .131E-02     .216E-03                                     
RMM:   4     -.249107093547E+02    -.27221E-04    -.12259E-05  5420    .529E-03                                                  
   78 T=  3065. E= -.19760822E+02 F= -.24910709E+02 E0= -.24830009E+02  EK=  .51499E+01 SP=  .00E+00 SK=  .00E+00 mag=       .976
       N       E                     dE             d eps       ncg     rms          rms(c)                                      
[...]
       N       E                     dE             d eps       ncg     rms          rms(c)                                      
DAV:   1     -.249841786987E+02     .70636E-02    -.14147E+00 11272    .871E+00     .779E-03                                     
RMM:   2     -.249861391735E+02    -.19605E-02    -.28167E-03 11238    .463E-02     .546E-03                                     
RMM:   3     -.249881318488E+02    -.19927E-02    -.37896E-05  8040    .816E-03     .469E-03                                     
RMM:   4     -.249905900890E+02    -.24582E-02    -.59230E-06  6529    .527E-03     .326E-03                                     
RMM:   5     -.249912411090E+02    -.65102E-03    -.69875E-06  6073    .578E-03     .858E-04                                     
RMM:   6     -.249912309540E+02     .10155E-04    -.24272E-07  2750    .275E-03                                                  
  521 T=  3114. E= -.19757883E+02 F= -.24991231E+02 E0= -.24910329E+02  EK=  .52333E+01 SP=  .00E+00 SK=  .00E+00 mag=      1.000
       N       E                     dE             d eps       ncg     rms          rms(c)                                      
DAV:   1     -.249822822169E+02     .89589E-02    -.16742E+00 11752    .817E+00     .803E-03                                     
RMM:   2     -.249858069220E+02    -.35247E-02    -.17625E-02 11369    .975E-02     .547E-03                                     
RMM:   3     -.249873900072E+02    -.15831E-02    -.33599E-04  7902    .149E-02     .522E-03                                     
RMM:   4     -.249885726715E+02    -.11827E-02    -.27389E-05  4731    .623E-03     .302E-03                                     
RMM:   5     -.249904018962E+02    -.18292E-02    -.42566E-06  6072    .459E-03     .227E-03                                     
RMM:   6     -.249913335959E+02    -.93170E-03    -.20457E-06  4521    .392E-03     .473E-04                                     
RMM:   7     -.249913778100E+02    -.44214E-04    -.12633E-06  3703    .364E-03     .297E-04                                     
RMM:   8     -.249913693923E+02     .84178E-05    -.25336E-07  2807    .301E-03                                                  
  522 T=  3114. E= -.19758002E+02 F= -.24991369E+02 E0= -.24910467E+02  EK=  .52334E+01 SP=  .00E+00 SK=  .00E+00 mag=      1.000
       N       E                     dE             d eps       ncg     rms          rms(c)                                      
DAV:   1     -.249829471813E+02     .84306E-02    -.24619E+00 11136    .943E+00     .800E-03                                     
RMM:   2     -.249858300107E+02    -.28828E-02    -.11345E-02 11141    .709E-02     .550E-03                                     
RMM:   3     -.249881364601E+02    -.23064E-02    -.13581E-04  6836    .990E-03     .389E-03                                     
RMM:   4     -.249890877284E+02    -.95127E-03    -.94700E-06  4672    .469E-03     .317E-03                                     
RMM:   5     -.249910794551E+02    -.19917E-02    -.29749E-06  5739    .442E-03     .159E-03                                     
RMM:   6     -.249913949763E+02    -.31552E-03    -.25753E-06  4393    .407E-03     .401E-04                                     
RMM:   7     -.249913621209E+02     .32855E-04    -.89025E-07  3368    .346E-03     .242E-04                                     
RMM:   8     -.249913794911E+02    -.17370E-04    -.79051E-08  2232    .258E-03                                                  
  523 T=  3114. E= -.19757993E+02 F= -.24991379E+02 E0= -.24910476E+02  EK=  .52334E+01 SP=  .00E+00 SK=  .00E+00 mag=      1.000
       N       E                     dE             d eps       ncg     rms          rms(c)                                      
DAV:   1     -.249841058064E+02     .72563E-02    -.11396E+00 11432    .862E+00     .782E-03                                     
RMM:   2     -.249859815416E+02    -.18757E-02    -.15649E-03 11800    .455E-02     .541E-03                                     
RMM:   3     -.249899192443E+02    -.39377E-02    -.25378E-05  8288    .831E-03     .311E-03                                     
RMM:   4     -.249910145923E+02    -.10953E-02    -.39693E-06  5507    .466E-03     .213E-03                                     
RMM:   5     -.249914075758E+02    -.39298E-03    -.27892E-06  5022    .431E-03     .131E-03                                     
RMM:   6     -.249913100915E+02     .97484E-04    -.15149E-06  3750    .375E-03     .349E-04                                     
RMM:   7     -.249913638582E+02    -.53767E-04    -.12444E-07  2337    .259E-03     .188E-04                                     
RMM:   8     -.249914111898E+02    -.47332E-04    -.32745E-07  2730    .277E-03     .241E-05                                     
RMM:   9     -.249914118553E+02    -.66545E-06    -.40646E-08  1747    .250E-03                                                  
  524 T=  3114. E= -.19758008E+02 F= -.24991412E+02 E0= -.24910507E+02  EK=  .52334E+01 SP=  .00E+00 SK=  .00E+00 mag=      1.000
       N       E                     dE             d eps       ncg     rms          rms(c)                                      
DAV:   1     -.249839612353E+02     .74500E-02    -.25139E+00 11576    .934E+00     .778E-03                                     
RMM:   2     -.249859372683E+02    -.19760E-02    -.24405E-03 11206    .392E-02     .540E-03                                     
RMM:   3     -.249901697615E+02    -.42325E-02    -.54613E-05  7853    .854E-03     .191E-03                                     
RMM:   4     -.249913006297E+02    -.11309E-02    -.73799E-06  5780    .485E-03     .214E-03                                     
RMM:   5     -.249913520549E+02    -.51425E-04    -.35794E-06  4703    .457E-03     .115E-03                                     
RMM:   6     -.249913281073E+02     .23948E-04    -.25166E-07  2535    .276E-03                                                  
  525 T=  3114. E= -.19757908E+02 F= -.24991328E+02 E0= -.24910423E+02  EK=  .52334E+01 SP=  .00E+00 SK=  .00E+00 mag=      1.000
       N       E                     dE             d eps       ncg     rms          rms(c)                                      
DAV:   1     -.249822949115E+02     .90571E-02    -.21950E+00 11944    .944E+00     .803E-03                                     
RMM:   2     -.249860254331E+02    -.37305E-02    -.20275E-02 11688    .970E-02     .548E-03                                     
RMM:   3     -.249883897912E+02    -.23644E-02    -.60233E-04  7313    .148E-02     .329E-03                                     
RMM:   4     -.249895734778E+02    -.11837E-02    -.41053E-05  6000    .671E-03     .408E-03                                     
RMM:   5     -.249913515645E+02    -.17781E-02    -.67425E-06  5555    .480E-03     .716E-04                                     
RMM:   6     -.249914323533E+02    -.80789E-04    -.26110E-06  4309    .411E-03     .524E-04                                     
RMM:   7     -.249913870504E+02     .45303E-04    -.41441E-07  2877    .300E-03     .262E-04                                     
RMM:   8     -.249914032806E+02    -.16230E-04    -.52420E-08  2046    .255E-03                                                  
  526 T=  3114. E= -.19757967E+02 F= -.24991403E+02 E0= -.24910497E+02  EK=  .52334E+01 SP=  .00E+00 SK=  .00E+00 mag=      1.000
       N       E                     dE             d eps       ncg     rms          rms(c)                                      
DAV:   1     -.249828005213E+02     .85865E-02    -.94672E-01 12360    .870E+00     .795E-03                                     
RMM:   2     -.249858476221E+02    -.30471E-02    -.12891E-02 11433    .948E-02     .541E-03                                     
RMM:   3     -.249883767072E+02    -.25291E-02    -.29449E-04  7112    .148E-02     .318E-03                                     
RMM:   4     -.249895550336E+02    -.11783E-02    -.32390E-05  5871    .689E-03     .382E-03                                     
RMM:   5     -.249913409376E+02    -.17859E-02    -.45189E-06  5567    .468E-03     .784E-04                                     
RMM:   6     -.249914428118E+02    -.10187E-03    -.84698E-07  3506    .328E-03     .490E-04                                     
RMM:   7     -.249914470799E+02    -.42681E-05    -.86479E-07  3554    .337E-03                                                  
  527 T=  3114. E= -.19757996E+02 F= -.24991447E+02 E0= -.24910540E+02  EK=  .52335E+01 SP=  .00E+00 SK=  .00E+00 mag=      1.000
       N       E                     dE             d eps       ncg     rms          rms(c)                                      
DAV:   1     -.249781987220E+02     .13244E-01    -.30151E+00 11488    .933E+00     .914E-03                                     
RMM:   2     -.249859157747E+02    -.77171E-02    -.59617E-02 11346    .121E-01     .573E-03                                     
RMM:   3     -.249870974632E+02    -.11817E-02    -.18019E-03  8404    .216E-02     .636E-03                                     
RMM:   4     -.249878071778E+02    -.70971E-03    -.17572E-04  4548    .842E-03     .380E-03                                     
RMM:   5     -.249895281876E+02    -.17210E-02    -.18270E-05  5700    .494E-03     .287E-03                                     
RMM:   6     -.249910249767E+02    -.14968E-02    -.19215E-06  4636    .386E-03     .737E-04                                     
RMM:   7     -.249914558642E+02    -.43089E-03    -.37102E-06  5004    .470E-03     .340E-04                                     
RMM:   8     -.249914359784E+02     .19886E-04    -.31725E-07  2680    .295E-03                                                  
  528 T=  3114. E= -.19757971E+02 F= -.24991436E+02 E0= -.24910528E+02  EK=  .52335E+01 SP=  .00E+00 SK=  .00E+00 mag=      1.000
       N       E                     dE             d eps       ncg     rms          rms(c)                                      
DAV:   1     -.249839123776E+02     .75435E-02    -.21101E+00 11856    .969E+00     .785E-03                                     
RMM:   2     -.249859919294E+02    -.20796E-02    -.34809E-03 11837    .599E-02     .541E-03                                     
RMM:   3     -.249888949170E+02    -.29030E-02    -.81486E-05  7979    .108E-02     .323E-03                                     
RMM:   4     -.249901428135E+02    -.12479E-02    -.67839E-06  5633    .535E-03     .287E-03                                     
RMM:   5     -.249911429958E+02    -.10002E-02    -.16889E-06  5240    .402E-03     .184E-03                                     
RMM:   6     -.249914619022E+02    -.31891E-03    -.30015E-06  4587    .435E-03     .398E-04                                     
RMM:   7     -.249914517209E+02     .10181E-04    -.22891E-07  2576    .285E-03                                                  
  529 T=  3114. E= -.19757973E+02 F= -.24991452E+02 E0= -.24910542E+02  EK=  .52335E+01 SP=  .00E+00 SK=  .00E+00 mag=      1.000
       N       E                     dE             d eps       ncg     rms          rms(c)                                      
DAV:   1     -.249834273303E+02     .80346E-02    -.14046E+00 11968    .907E+00     .798E-03                                     
RMM:   2     -.249860003164E+02    -.25730E-02    -.84661E-03 11398    .719E-02     .549E-03                                     
RMM:   3     -.249882388987E+02    -.22386E-02    -.14032E-04  7401    .115E-02     .359E-03                                     
RMM:   4     -.249898195362E+02    -.15806E-02    -.13597E-05  5600    .575E-03     .284E-03                                     
RMM:   5     -.249908627461E+02    -.10432E-02    -.23279E-06  5026    .406E-03     .249E-03                                     
RMM:   6     -.249914890188E+02    -.62627E-03    -.35408E-06  4985    .455E-03     .416E-04                                     
RMM:   7     -.249914541713E+02     .34848E-04    -.49276E-07  2942    .314E-03     .253E-04                                     
RMM:   8     -.249914767249E+02    -.22554E-04    -.70236E-08  2283    .261E-03                                                  
  530 T=  3114. E= -.19757985E+02 F= -.24991477E+02 E0= -.24910567E+02  EK=  .52335E+01 SP=  .00E+00 SK=  .00E+00 mag=      1.000
       N       E                     dE             d eps       ncg     rms          rms(c)                                      
DAV:   1     -.249831023005E+02     .83519E-02    -.10394E+00 11576    .843E+00     .792E-03                                     
RMM:   2     -.249860090553E+02    -.29068E-02    -.11775E-02 11239    .706E-02     .546E-03                                     
RMM:   3     -.249883490239E+02    -.23400E-02    -.17683E-04  6962    .107E-02     .344E-03                                     
RMM:   4     -.249894345293E+02    -.10855E-02    -.16769E-05  5128    .536E-03     .361E-03                                     
RMM:   5     -.249912263033E+02    -.17918E-02    -.28016E-06  5351    .428E-03     .153E-03                                     
RMM:   6     -.249914992105E+02    -.27291E-03    -.24772E-06  4378    .411E-03     .414E-04                                     
RMM:   7     -.249914619464E+02     .37264E-04    -.43022E-07  2844    .306E-03     .243E-04                                     
RMM:   8     -.249914900509E+02    -.28104E-04    -.77549E-08  2339    .257E-03                                                  
  531 T=  3114. E= -.19757988E+02 F= -.24991490E+02 E0= -.24910579E+02  EK=  .52335E+01 SP=  .00E+00 SK=  .00E+00 mag=      1.000
       N       E                     dE             d eps       ncg     rms          rms(c)                                      
DAV:   1     -.249838096955E+02     .76523E-02    -.99624E-01 11232    .802E+00     .781E-03                                     
RMM:   2     -.249860294602E+02    -.22198E-02    -.49454E-03 11293    .517E-02     .544E-03                                     
RMM:   3     -.249895448719E+02    -.35154E-02    -.59001E-05  7774    .864E-03     .273E-03                                     
RMM:   4     -.249910166352E+02    -.14718E-02    -.54646E-06  5692    .486E-03     .183E-03                                     
RMM:   5     -.249914820065E+02    -.46537E-03    -.15319E-06  4315    .378E-03     .187E-03                                     
RMM:   6     -.249914288111E+02     .53195E-04    -.15237E-06  4048    .384E-03     .367E-04                                     
RMM:   7     -.249914670115E+02    -.38200E-04    -.83457E-08  2316    .254E-03     .187E-04                                     
RMM:   8     -.249915107653E+02    -.43754E-04    -.13718E-07  2569    .260E-03     .312E-05                                     
RMM:   9     -.249915116810E+02    -.91566E-06    -.19805E-08  1646    .248E-03                                                  
  532 T=  3114. E= -.19757999E+02 F= -.24991512E+02 E0= -.24910600E+02  EK=  .52335E+01 SP=  .00E+00 SK=  .00E+00 mag=      1.000
       N       E                     dE             d eps       ncg     rms          rms(c)                                      
DAV:   1     -.249788404000E+02     .12670E-01    -.19381E+00 12088    .742E+00     .879E-03                                     
RMM:   2     -.249858909493E+02    -.70505E-02    -.53117E-02 11198    .176E-01     .558E-03                                     
RMM:   3     -.249874575866E+02    -.15666E-02    -.10371E-03  6611    .231E-02     .457E-03                                     
RMM:   4     -.249879594821E+02    -.50190E-03    -.98843E-05  4024    .884E-03     .387E-03                                     
RMM:   5     -.249906192007E+02    -.26597E-02    -.91253E-06  5424    .491E-03     .127E-03                                     
RMM:   6     -.249912869117E+02    -.66771E-03    -.11092E-06  4282    .358E-03     .879E-04                                     
RMM:   7     -.249915219383E+02    -.23503E-03    -.18984E-06  4158    .387E-03     .329E-04                                     
RMM:   8     -.249914951245E+02     .26814E-04    -.40661E-07  2863    .307E-03                                                  
  533 T=  3114. E= -.19757973E+02 F= -.24991495E+02 E0= -.24910582E+02  EK=  .52335E+01 SP=  .00E+00 SK=  .00E+00 mag=      1.000
       N       E                     dE             d eps       ncg     rms          rms(c)                                      
DAV:   1     -.249842889915E+02     .72329E-02    -.23072E+00 11088    .682E+00     .776E-03                                     
RMM:   2     -.249860698907E+02    -.17809E-02    -.61561E-04 10790    .277E-02     .544E-03                                     
RMM:   3     -.249907821999E+02    -.47123E-02    -.16924E-05  7540    .702E-03     .180E-03                                     
RMM:   4     -.249914333477E+02    -.65115E-03    -.26183E-06  5141    .422E-03     .264E-03                                     
RMM:   5     -.249913687897E+02     .64558E-04    -.26349E-06  4457    .425E-03     .483E-04                                     
RMM:   6     -.249913979622E+02    -.29173E-04    -.14475E-07  2419    .262E-03                                                  
  534 T=  3114. E= -.19757867E+02 F= -.24991398E+02 E0= -.24910484E+02  EK=  .52335E+01 SP=  .00E+00 SK=  .00E+00 mag=      1.000
       N       E                     dE             d eps       ncg     rms          rms(c)                                      
DAV:   1     -.249837291937E+02     .76396E-02    -.14015E+00 11120    .772E+00     .773E-03                                     
RMM:   2     -.249862194016E+02    -.24902E-02    -.79630E-03 10846    .500E-02     .538E-03                                     
RMM:   3     -.249888159019E+02    -.25965E-02    -.15565E-04  7103    .908E-03     .452E-03                                     
RMM:   4     -.249902112544E+02    -.13954E-02    -.17833E-05  4695    .483E-03     .196E-03                                     
RMM:   5     -.249914568867E+02    -.12456E-02    -.54205E-06  5978    .529E-03     .469E-04                                     
RMM:   6     -.249914543849E+02     .25017E-05    -.22107E-07  2528    .273E-03                                                  
  535 T=  3114. E= -.19757915E+02 F= -.24991454E+02 E0= -.24910539E+02  EK=  .52335E+01 SP=  .00E+00 SK=  .00E+00 mag=      1.000
       N       E                     dE             d eps       ncg     rms          rms(c)                                      
DAV:   1     -.249841658763E+02     .72910E-02    -.12646E+00 11352    .843E+00     .777E-03                                     
RMM:   2     -.249860364049E+02    -.18705E-02    -.13671E-03 11210    .373E-02     .546E-03                                     
RMM:   3     -.249896162848E+02    -.35799E-02    -.28777E-05  8481    .800E-03     .379E-03                                     
RMM:   4     -.249912297435E+02    -.16135E-02    -.41086E-06  5929    .479E-03     .234E-03                                     
RMM:   5     -.249913729095E+02    -.14317E-03    -.39363E-06  5627    .490E-03     .114E-03                                     
RMM:   6     -.249914410164E+02    -.68107E-04    -.20656E-07  2635    .257E-03     .371E-04                                     
RMM:   7     -.249914963048E+02    -.55288E-04    -.71993E-08  2346    .245E-03     .211E-04                                     
RMM:   8     -.249915327558E+02    -.36451E-04    -.79404E-08  2468    .250E-03     .649E-05                                     
RMM:   9     -.249915409847E+02    -.82289E-05    -.45393E-08  1989    .249E-03                                                  
  536 T=  3114. E= -.19757994E+02 F= -.24991541E+02 E0= -.24910625E+02  EK=  .52335E+01 SP=  .00E+00 SK=  .00E+00 mag=      1.000
