       N       E                     dE             d eps       ncg     rms          rms(c)                                      
DAV:   1      .111660614524E+04     .11166E+04    -.62952E+04 16320    .996E+02                                                  
DAV:   2      .173411720070E+02    -.10993E+04    -.10423E+04 16856    .279E+02                                                  
DAV:   3     -.254593423117E+02    -.42801E+02    -.42245E+02 18104    .674E+01                                                  
DAV:   4     -.258430772377E+02    -.38373E+00    -.38316E+00 18032    .612E+00                                                  
DAV:   5     -.258479124733E+02    -.48352E-02    -.48351E-02 18160    .582E-01     .167E+01                                     
RMM:   6     -.243283345216E+02     .15196E+01    -.57638E+00 16320    .813E+00     .107E+01                                     
RMM:   7     -.305373284014E+02    -.62090E+01    -.12202E+01 16364    .711E+00     .884E+00                                     
RMM:   8     -.262543336650E+02     .42830E+01    -.93272E+00 16387    .570E+00     .500E+00                                     
RMM:   9     -.267294823240E+02    -.47515E+00    -.26026E+00 16422    .288E+00     .485E+00                                     
RMM:  10     -.249469186618E+02     .17826E+01    -.90311E-01 16418    .191E+00     .998E-01                                     
RMM:  11     -.249008914494E+02     .46027E-01    -.11380E-01 16429    .839E-01     .245E-01                                     
RMM:  12     -.248985452673E+02     .23462E-02    -.50692E-03 16441    .184E-01     .134E-01                                     
RMM:  13     -.248995490167E+02    -.10037E-02    -.11288E-03 16360    .101E-01     .550E-02                                     
RMM:  14     -.249001895867E+02    -.64057E-03    -.82244E-05 10721    .266E-02     .216E-02                                     
RMM:  15     -.249003609098E+02    -.17132E-03    -.31287E-05  9865    .175E-02     .856E-03                                     
RMM:  16     -.249003796539E+02    -.18744E-04    -.69038E-06  9564    .781E-03                                                  
    1 T=  3066. E= -.19747868E+02 F= -.24900380E+02 E0= -.24819996E+02  EK=  .51525E+01 SP=  .00E+00 SK=  .00E+00 mag=       .999
       N       E                     dE             d eps       ncg     rms          rms(c)                                      
DAV:   1     -.244449201299E+02     .45544E+00    -.15476E-01 17192    .149E-01     .301E-01                                     
RMM:   2     -.245844766692E+02    -.13956E+00    -.10334E-03 10869    .365E-02     .217E-01                                     
RMM:   3     -.248783150761E+02    -.29384E+00    -.12999E-03 11434    .400E-02     .221E-02                                     
RMM:   4     -.248968960760E+02    -.18581E-01    -.21169E-05  9840    .934E-03     .123E-02                                     
RMM:   5     -.249003886782E+02    -.34926E-02    -.21136E-05  6453    .569E-03     .224E-03                                     
RMM:   6     -.249000742975E+02     .31438E-03    -.83110E-06  4906    .408E-03     .679E-04                                     
RMM:   7     -.249004143816E+02    -.34008E-03    -.43803E-06  3764    .327E-03     .186E-04                                     
RMM:   8     -.249004221835E+02    -.78020E-05    -.45635E-06  3949    .330E-03                                                  
    2 T=  3066. E= -.19747846E+02 F= -.24900422E+02 E0= -.24820037E+02  EK=  .51526E+01 SP=  .00E+00 SK=  .00E+00 mag=      1.000
       N       E                     dE             d eps       ncg     rms          rms(c)                                      
DAV:   1     -.248458924570E+02     .54522E-01    -.83324E-02 11832    .270E+00     .419E-02                                     
RMM:   2     -.248630380864E+02    -.17146E-01    -.18733E-02 11049    .810E-02     .277E-02                                     
RMM:   3     -.248986274257E+02    -.35589E-01    -.47464E-04 11008    .287E-02     .127E-02                                     
RMM:   4     -.248997615568E+02    -.11341E-02    -.56368E-05 10052    .119E-02     .276E-03                                     
RMM:   5     -.248998918812E+02    -.13032E-03    -.77895E-06  4700    .422E-03     .144E-03                                     
RMM:   6     -.249002354837E+02    -.34360E-03    -.24930E-05  5064    .500E-03     .959E-04                                     
RMM:   7     -.249004361029E+02    -.20062E-03    -.30931E-06  4088    .354E-03     .257E-04                                     
RMM:   8     -.249004954267E+02    -.59324E-04    -.15063E-06  3255    .288E-03     .813E-05                                     
RMM:   9     -.249005040641E+02    -.86374E-05    -.45112E-07  2448    .259E-03                                                  
    3 T=  3066. E= -.19747863E+02 F= -.24900504E+02 E0= -.24820120E+02  EK=  .51526E+01 SP=  .00E+00 SK=  .00E+00 mag=      1.000
       N       E                     dE             d eps       ncg     rms          rms(c)                                      
DAV:   1     -.248912914372E+02     .92040E-02    -.17722E+00 13056    .675E+00     .935E-03                                     
RMM:   2     -.248964465817E+02    -.51551E-02    -.17310E-02 11042    .816E-02     .508E-03                                     
RMM:   3     -.248979633356E+02    -.15168E-02    -.26420E-04  7350    .117E-02     .267E-03                                     
RMM:   4     -.249002731189E+02    -.23098E-02    -.24032E-05  8464    .745E-03     .115E-03                                     
RMM:   5     -.249005519214E+02    -.27880E-03    -.53845E-06  4895    .453E-03     .404E-04                                     
RMM:   6     -.249005532408E+02    -.13194E-05    -.50343E-07  3091    .277E-03                                                  
    4 T=  3066. E= -.19747845E+02 F= -.24900553E+02 E0= -.24820169E+02  EK=  .51527E+01 SP=  .00E+00 SK=  .00E+00 mag=      1.000
       N       E                     dE             d eps       ncg     rms          rms(c)                                      
DAV:   1     -.248931234471E+02     .74285E-02    -.11435E+00 11880    .622E+00     .815E-03                                     
RMM:   2     -.248993341157E+02    -.62107E-02    -.37901E-04 10771    .253E-02     .241E-03                                     
RMM:   3     -.248998723788E+02    -.53826E-03    -.10367E-05  6717    .585E-03     .145E-03                                     
RMM:   4     -.249003080675E+02    -.43569E-03    -.25114E-06  4818    .382E-03     .522E-04                                     
RMM:   5     -.249005546522E+02    -.24658E-03    -.79237E-07  4107    .337E-03     .254E-04                                     
RMM:   6     -.249006346576E+02    -.80005E-04    -.85234E-06  4146    .424E-03     .114E-04                                     
RMM:   7     -.249006382670E+02    -.36094E-05    -.49284E-07  2718    .285E-03                                                  
    5 T=  3066. E= -.19747860E+02 F= -.24900638E+02 E0= -.24820254E+02  EK=  .51528E+01 SP=  .00E+00 SK=  .00E+00 mag=      1.000
       N       E                     dE             d eps       ncg     rms          rms(c)                                      
DAV:   1     -.248931501648E+02     .74845E-02    -.16509E+00 11376    .663E+00     .791E-03                                     
RMM:   2     -.248997183590E+02    -.65682E-02    -.71580E-04 10589    .274E-02     .186E-03                                     
RMM:   3     -.249001367889E+02    -.41843E-03    -.14800E-05  6922    .636E-03     .112E-03                                     
RMM:   4     -.249004417462E+02    -.30496E-03    -.22604E-06  5022    .399E-03     .465E-04                                     
RMM:   5     -.249006039190E+02    -.16217E-03    -.46692E-07  3435    .305E-03     .171E-04                                     
RMM:   6     -.249006855656E+02    -.81647E-04    -.87677E-07  3699    .318E-03     .120E-04                                     
RMM:   7     -.249007034164E+02    -.17851E-04    -.87609E-08  2187    .264E-03                                                  
    6 T=  3066. E= -.19747854E+02 F= -.24900703E+02 E0= -.24820319E+02  EK=  .51528E+01 SP=  .00E+00 SK=  .00E+00 mag=      1.000
       N       E                     dE             d eps       ncg     rms          rms(c)                                      
DAV:   1     -.248888967645E+02     .11789E-01    -.12880E+00 11832    .690E+00     .857E-03                                     
RMM:   2     -.248998223326E+02    -.10926E-01    -.42579E-02 10911    .140E-01     .246E-03                                     
RMM:   3     -.249004722694E+02    -.64994E-03    -.93297E-04  7998    .193E-02     .175E-03                                     
RMM:   4     -.249005344391E+02    -.62170E-04    -.66449E-05  4833    .722E-03     .116E-03                                     
RMM:   5     -.249005630387E+02    -.28600E-04    -.84642E-06  3720    .390E-03                                                  
    7 T=  3067. E= -.19747640E+02 F= -.24900563E+02 E0= -.24820179E+02  EK=  .51529E+01 SP=  .00E+00 SK=  .00E+00 mag=      1.000
       N       E                     dE             d eps       ncg     rms          rms(c)                                      
DAV:   1     -.248932607145E+02     .72737E-02    -.91973E-01 11744    .605E+00     .805E-03                                     
RMM:   2     -.249000808753E+02    -.68202E-02    -.15121E-03 11148    .397E-02     .246E-03                                     
RMM:   3     -.249004761379E+02    -.39526E-03    -.24570E-05  7716    .782E-03     .176E-03                                     
RMM:   4     -.249006040910E+02    -.12795E-03    -.10446E-05  6282    .558E-03     .782E-04                                     
RMM:   5     -.249006832962E+02    -.79205E-04    -.62749E-07  3899    .318E-03     .358E-04                                     
RMM:   6     -.249008231696E+02    -.13987E-03    -.15849E-06  3679    .330E-03     .163E-04                                     
RMM:   7     -.249008565420E+02    -.33372E-04    -.84177E-07  3233    .317E-03     .100E-04                                     
RMM:   8     -.249008582291E+02    -.16872E-05    -.37265E-07  2780    .290E-03                                                  
    8 T=  3067. E= -.19747860E+02 F= -.24900858E+02 E0= -.24820474E+02  EK=  .51530E+01 SP=  .00E+00 SK=  .00E+00 mag=      1.000
       N       E                     dE             d eps       ncg     rms          rms(c)                                      
DAV:   1     -.248933158353E+02     .75407E-02    -.15551E+00 11840    .598E+00     .799E-03                                     
RMM:   2     -.248999723688E+02    -.66565E-02    -.34426E-04 10823    .260E-02     .338E-03                                     
RMM:   3     -.249000400168E+02    -.67648E-04    -.11293E-05  8533    .716E-03     .190E-03                                     
RMM:   4     -.249000425709E+02    -.25541E-05    -.13831E-06  4490    .352E-03                                                  
    9 T=  3067. E= -.19746962E+02 F= -.24900043E+02 E0= -.24819659E+02  EK=  .51531E+01 SP=  .00E+00 SK=  .00E+00 mag=      1.000
       N       E                     dE             d eps       ncg     rms          rms(c)                                      
DAV:   1     -.248920615849E+02     .79784E-02    -.90722E-01 12144    .601E+00     .862E-03                                     
RMM:   2     -.248994575990E+02    -.73960E-02    -.78086E-03 11156    .616E-02     .442E-03                                     
RMM:   3     -.249003358394E+02    -.87824E-03    -.75419E-05  9560    .977E-03     .240E-03                                     
RMM:   4     -.249007507866E+02    -.41495E-03    -.37397E-06  4992    .434E-03     .134E-03                                     
RMM:   5     -.249008588645E+02    -.10808E-03    -.18056E-06  5443    .383E-03     .636E-04                                     
RMM:   6     -.249008809615E+02    -.22097E-04    -.79776E-07  3602    .299E-03                                                  
   10 T=  3067. E= -.19747714E+02 F= -.24900881E+02 E0= -.24820496E+02  EK=  .51532E+01 SP=  .00E+00 SK=  .00E+00 mag=      1.000
       N       E                     dE             d eps       ncg     rms          rms(c)                                      
DAV:   1     -.248918565658E+02     .90023E-02    -.23406E+00 12144    .737E+00     .796E-03                                     
RMM:   2     -.249001650502E+02    -.83085E-02    -.23090E-02 11506    .876E-02     .399E-03                                     
RMM:   3     -.249007322106E+02    -.56716E-03    -.45480E-04  9581    .142E-02     .134E-03                                     
RMM:   4     -.249008499301E+02    -.11772E-03    -.24454E-05  4628    .514E-03     .910E-04                                     
RMM:   5     -.249009496864E+02    -.99756E-04    -.49749E-06  4721    .409E-03     .555E-04                                     
RMM:   6     -.249010006851E+02    -.50999E-04    -.23009E-06  4267    .366E-03     .305E-04                                     
RMM:   7     -.249010458303E+02    -.45145E-04    -.76787E-07  3178    .275E-03     .274E-04                                     
RMM:   8     -.249011012043E+02    -.55374E-04    -.17600E-06  3542    .317E-03     .714E-05                                     
RMM:   9     -.249011036890E+02    -.24847E-05    -.18212E-07  2294    .266E-03                                                  
   11 T=  3067. E= -.19747853E+02 F= -.24901104E+02 E0= -.24820720E+02  EK=  .51533E+01 SP=  .00E+00 SK=  .00E+00 mag=      1.000
       N       E                     dE             d eps       ncg     rms          rms(c)                                      
DAV:   1     -.248928976055E+02     .82036E-02    -.13044E+00 12408    .801E+00     .821E-03                                     
RMM:   2     -.249001595514E+02    -.72619E-02    -.58985E-03 11233    .651E-02     .292E-03                                     
RMM:   3     -.249006535504E+02    -.49400E-03    -.12191E-04  9059    .110E-02     .142E-03                                     
RMM:   4     -.249009845217E+02    -.33097E-03    -.10273E-05  4333    .432E-03     .885E-04                                     
RMM:   5     -.249011537581E+02    -.16924E-03    -.30856E-06  5007    .394E-03     .333E-04                                     
RMM:   6     -.249011810512E+02    -.27293E-04    -.75453E-07  3380    .315E-03                                                  
   12 T=  3067. E= -.19747845E+02 F= -.24901181E+02 E0= -.24820797E+02  EK=  .51533E+01 SP=  .00E+00 SK=  .00E+00 mag=      1.000
       N       E                     dE             d eps       ncg     rms          rms(c)                                      
DAV:   1     -.248922003107E+02     .89534E-02    -.92375E-01 12080    .684E+00     .809E-03                                     
RMM:   2     -.249002532605E+02    -.80529E-02    -.14844E-02 10984    .798E-02     .535E-03                                     
RMM:   3     -.249005269075E+02    -.27365E-03    -.40644E-04  9545    .131E-02     .222E-03                                     
RMM:   4     -.249009774451E+02    -.45054E-03    -.20453E-05  5085    .526E-03     .164E-03                                     
RMM:   5     -.249012139183E+02    -.23647E-03    -.61256E-06  7381    .558E-03     .341E-04                                     
RMM:   6     -.249012507155E+02    -.36797E-04    -.13763E-06  3459    .312E-03     .296E-04                                     
RMM:   7     -.249012506076E+02     .10784E-06    -.22943E-06  3778    .333E-03                                                  
   13 T=  3067. E= -.19747828E+02 F= -.24901251E+02 E0= -.24820867E+02  EK=  .51534E+01 SP=  .00E+00 SK=  .00E+00 mag=      1.000
       N       E                     dE             d eps       ncg     rms          rms(c)                                      
DAV:   1     -.248938633756E+02     .73873E-02    -.12299E+00 11816    .719E+00     .796E-03                                     
RMM:   2     -.249004495290E+02    -.65862E-02    -.78576E-04 10907    .332E-02     .226E-03                                     
RMM:   3     -.249010512103E+02    -.60168E-03    -.19336E-05  8440    .802E-03     .179E-03                                     
RMM:   4     -.249011306338E+02    -.79424E-04    -.27913E-06  4370    .381E-03     .132E-03                                     
RMM:   5     -.249013036117E+02    -.17298E-03    -.65827E-06  6475    .547E-03     .466E-04                                     
RMM:   6     -.249013359716E+02    -.32360E-04    -.31192E-07  2477    .256E-03     .282E-04                                     
RMM:   7     -.249013466255E+02    -.10654E-04    -.71404E-07  2844    .255E-03                                                  
   14 T=  3067. E= -.19747837E+02 F= -.24901347E+02 E0= -.24820963E+02  EK=  .51535E+01 SP=  .00E+00 SK=  .00E+00 mag=      1.000
       N       E                     dE             d eps       ncg     rms          rms(c)                                      
DAV:   1     -.248933317007E+02     .80043E-02    -.18938E+00 12208    .750E+00     .805E-03                                     
RMM:   2     -.249006561007E+02    -.73244E-02    -.54397E-03 11159    .582E-02     .494E-03                                     
RMM:   3     -.249011067857E+02    -.45068E-03    -.10718E-04  9699    .125E-02     .886E-04                                     
RMM:   4     -.249012705099E+02    -.16372E-03    -.80116E-06  4365    .439E-03     .705E-04                                     
RMM:   5     -.249014118060E+02    -.14130E-03    -.33819E-06  4626    .393E-03     .449E-04                                     
RMM:   6     -.249014320050E+02    -.20199E-04    -.70869E-07  3332    .302E-03                                                  
   15 T=  3067. E= -.19747832E+02 F= -.24901432E+02 E0= -.24821049E+02  EK=  .51536E+01 SP=  .00E+00 SK=  .00E+00 mag=      1.000
       N       E                     dE             d eps       ncg     rms          rms(c)                                      
DAV:   1     -.248933244817E+02     .80873E-02    -.13238E+00 11608    .662E+00     .792E-03                                     
RMM:   2     -.249007203182E+02    -.73958E-02    -.75696E-03 10851    .460E-02     .330E-03                                     
RMM:   3     -.249013472485E+02    -.62693E-03    -.11396E-04  9337    .937E-03     .984E-04                                     
RMM:   4     -.249014467645E+02    -.99516E-04    -.10773E-05  4611    .408E-03     .536E-04                                     
RMM:   5     -.249014705441E+02    -.23780E-04    -.15580E-06  3523    .310E-03                                                  
   16 T=  3067. E= -.19747778E+02 F= -.24901471E+02 E0= -.24821088E+02  EK=  .51537E+01 SP=  .00E+00 SK=  .00E+00 mag=      1.000
       N       E                     dE             d eps       ncg     rms          rms(c)                                      
DAV:   1     -.248939142231E+02     .75325E-02    -.12054E+00 12120    .598E+00     .791E-03                                     
RMM:   2     -.249008519892E+02    -.69378E-02    -.16240E-03 10844    .363E-02     .258E-03                                     
RMM:   3     -.249013801052E+02    -.52812E-03    -.30324E-05  7564    .766E-03     .154E-03                                     
RMM:   4     -.249014876051E+02    -.10750E-03    -.34798E-06  4957    .416E-03     .894E-04                                     
RMM:   5     -.249016172934E+02    -.12969E-03    -.25657E-06  4838    .397E-03     .547E-04                                     
RMM:   6     -.249016257419E+02    -.84484E-05    -.17585E-06  4353    .351E-03                                                  
   17 T=  3067. E= -.19747838E+02 F= -.24901626E+02 E0= -.24821242E+02  EK=  .51538E+01 SP=  .00E+00 SK=  .00E+00 mag=      1.000
       N       E                     dE             d eps       ncg     rms          rms(c)                                      
DAV:   1     -.248931625393E+02     .84548E-02    -.21842E+00 12728    .833E+00     .800E-03                                     
RMM:   2     -.249009906391E+02    -.78281E-02    -.11270E-02 11541    .786E-02     .441E-03                                     
RMM:   3     -.249014170404E+02    -.42640E-03    -.21533E-04  9772    .147E-02     .176E-03                                     
RMM:   4     -.249015216301E+02    -.10459E-03    -.17965E-05  4748    .532E-03     .984E-04                                     
RMM:   5     -.249017037830E+02    -.18215E-03    -.56662E-06  4995    .439E-03     .537E-04                                     
RMM:   6     -.249017243702E+02    -.20587E-04    -.90095E-07  3701    .330E-03                                                  
   18 T=  3067. E= -.19747840E+02 F= -.24901724E+02 E0= -.24821341E+02  EK=  .51539E+01 SP=  .00E+00 SK=  .00E+00 mag=      1.000
       N       E                     dE             d eps       ncg     rms          rms(c)                                      
DAV:   1     -.248926123119E+02     .90915E-02    -.12911E+00 12448    .861E+00     .805E-03                                     
RMM:   2     -.249009432431E+02    -.83309E-02    -.16927E-02 11753    .112E-01     .449E-03                                     
RMM:   3     -.249015187717E+02    -.57553E-03    -.25222E-04  9821    .161E-02     .156E-03                                     
RMM:   4     -.249015988649E+02    -.80093E-04    -.26915E-05  4740    .588E-03     .101E-03                                     
RMM:   5     -.249017395900E+02    -.14073E-03    -.26043E-06  4106    .374E-03     .535E-04                                     
RMM:   6     -.249017992149E+02    -.59625E-04    -.16582E-06  4600    .379E-03     .253E-04                                     
RMM:   7     -.249018187601E+02    -.19545E-04    -.42956E-07  3077    .299E-03                                                  
   19 T=  3067. E= -.19747837E+02 F= -.24901819E+02 E0= -.24821435E+02  EK=  .51540E+01 SP=  .00E+00 SK=  .00E+00 mag=      1.000
       N       E                     dE             d eps       ncg     rms          rms(c)                                      
DAV:   1     -.248913400971E+02     .10459E-01    -.81578E-01 11960    .689E+00     .834E-03                                     
RMM:   2     -.249010632775E+02    -.97232E-02    -.29886E-02 11340    .866E-02     .501E-03                                     
RMM:   3     -.249015604424E+02    -.49716E-03    -.74060E-04  9805    .172E-02     .182E-03                                     
RMM:   4     -.249017013491E+02    -.14091E-03    -.91968E-05  4216    .601E-03     .122E-03                                     
RMM:   5     -.249018177308E+02    -.11638E-03    -.86247E-06  4750    .430E-03     .629E-04                                     
RMM:   6     -.249018810080E+02    -.63277E-04    -.13267E-06  3775    .337E-03     .422E-04                                     
RMM:   7     -.249019000684E+02    -.19060E-04    -.51971E-07  2815    .291E-03                                                  
   20 T=  3067. E= -.19747819E+02 F= -.24901900E+02 E0= -.24821517E+02  EK=  .51541E+01 SP=  .00E+00 SK=  .00E+00 mag=      1.000
       N       E                     dE             d eps       ncg     rms          rms(c)                                      
DAV:   1     -.248935617790E+02     .83192E-02    -.10402E+00 11952    .706E+00     .796E-03                                     
RMM:   2     -.249011806493E+02    -.76189E-02    -.99277E-03 10807    .571E-02     .318E-03                                     
RMM:   3     -.249017859847E+02    -.60534E-03    -.23531E-04  8897    .106E-02     .161E-03                                     
RMM:   4     -.249017885012E+02    -.25165E-05    -.36195E-05  5315    .525E-03                                                  
   21 T=  3067. E= -.19747604E+02 F= -.24901789E+02 E0= -.24821406E+02  EK=  .51542E+01 SP=  .00E+00 SK=  .00E+00 mag=      1.000
       N       E                     dE             d eps       ncg     rms          rms(c)                                      
DAV:   1     -.248939055533E+02     .78804E-02    -.18127E+00 12112    .716E+00     .848E-03                                     
RMM:   2     -.249009287923E+02    -.70232E-02    -.56587E-03 11064    .612E-02     .304E-03                                     
RMM:   3     -.249014351762E+02    -.50638E-03    -.69884E-05  9296    .990E-03     .161E-03                                     
RMM:   4     -.249018618275E+02    -.42665E-03    -.83089E-06  5279    .509E-03     .944E-04                                     
RMM:   5     -.249020923744E+02    -.23055E-03    -.98034E-06  5753    .537E-03     .519E-04                                     
RMM:   6     -.249021065598E+02    -.14185E-04    -.25454E-06  3650    .350E-03                                                  
   22 T=  3067. E= -.19747818E+02 F= -.24902107E+02 E0= -.24821724E+02  EK=  .51543E+01 SP=  .00E+00 SK=  .00E+00 mag=      1.000
       N       E                     dE             d eps       ncg     rms          rms(c)                                      
DAV:   1     -.248949257406E+02     .71666E-02    -.99345E-01 12264    .674E+00     .797E-03                                     
RMM:   2     -.249014009863E+02    -.64752E-02    -.34364E-04 11084    .279E-02     .284E-03                                     
RMM:   3     -.249018451151E+02    -.44413E-03    -.11473E-05  7841    .748E-03     .116E-03                                     
RMM:   4     -.249021153916E+02    -.27028E-03    -.48630E-06  6690    .499E-03     .672E-04                                     
RMM:   5     -.249021798360E+02    -.64444E-04    -.12967E-06  3285    .296E-03     .226E-04                                     
RMM:   6     -.249022214620E+02    -.41626E-04    -.23363E-06  4249    .383E-03     .144E-04                                     
RMM:   7     -.249022300812E+02    -.86191E-05    -.78266E-07  2978    .295E-03                                                  
   23 T=  3067. E= -.19747837E+02 F= -.24902230E+02 E0= -.24821848E+02  EK=  .51544E+01 SP=  .00E+00 SK=  .00E+00 mag=      1.000
       N       E                     dE             d eps       ncg     rms          rms(c)                                      
DAV:   1     -.248929326688E+02     .92888E-02    -.14624E+00 12304    .716E+00     .863E-03                                     
RMM:   2     -.249015953856E+02    -.86627E-02    -.18632E-02 11164    .914E-02     .315E-03                                     
RMM:   3     -.249020848419E+02    -.48946E-03    -.27676E-04  8264    .137E-02     .224E-03                                     
RMM:   4     -.249021953359E+02    -.11049E-03    -.13790E-05  4770    .532E-03     .136E-03                                     
RMM:   5     -.249022702814E+02    -.74946E-04    -.31419E-06  6507    .431E-03     .472E-04                                     
RMM:   6     -.249022915258E+02    -.21244E-04    -.18780E-07  2412    .225E-03                                                  
   24 T=  3067. E= -.19747792E+02 F= -.24902292E+02 E0= -.24821909E+02  EK=  .51545E+01 SP=  .00E+00 SK=  .00E+00 mag=      1.000
       N       E                     dE             d eps       ncg     rms          rms(c)                                      
DAV:   1     -.248918967817E+02     .10373E-01    -.20314E+00 11424    .674E+00     .821E-03                                     
RMM:   2     -.249014900825E+02    -.95933E-02    -.29830E-02 10746    .813E-02     .264E-03                                     
RMM:   3     -.249021359390E+02    -.64586E-03    -.45591E-04  8255    .127E-02     .171E-03                                     
RMM:   4     -.249021839927E+02    -.48054E-04    -.31143E-05  4311    .513E-03     .111E-03                                     
RMM:   5     -.249023759947E+02    -.19200E-03    -.44891E-06  4992    .464E-03     .485E-04                                     
RMM:   6     -.249024108622E+02    -.34868E-04    -.12413E-06  3564    .333E-03     .210E-04                                     
RMM:   7     -.249024283647E+02    -.17503E-04    -.16059E-06  3613    .345E-03                                                  
   25 T=  3068. E= -.19747820E+02 F= -.24902428E+02 E0= -.24822046E+02  EK=  .51546E+01 SP=  .00E+00 SK=  .00E+00 mag=      1.000
       N       E                     dE             d eps       ncg     rms          rms(c)                                      
DAV:   1     -.248943586863E+02     .80522E-02    -.72013E-01 11960    .726E+00     .789E-03                                     
RMM:   2     -.249015883222E+02    -.72296E-02    -.79885E-03 11201    .690E-02     .293E-03                                     
RMM:   3     -.249022185640E+02    -.63024E-03    -.77494E-05  9319    .104E-02     .171E-03                                     
RMM:   4     -.249023189308E+02    -.10037E-03    -.47271E-06  4435    .431E-03     .799E-04                                     
RMM:   5     -.249024403276E+02    -.12140E-03    -.11274E-06  3897    .353E-03     .473E-04                                     
RMM:   6     -.249025057534E+02    -.65426E-04    -.23132E-06  3989    .382E-03     .200E-04                                     
RMM:   7     -.249025367052E+02    -.30952E-04    -.13710E-06  3823    .350E-03     .118E-04                                     
RMM:   8     -.249025495965E+02    -.12891E-04    -.33791E-06  4419    .434E-03                                                  
   26 T=  3068. E= -.19747831E+02 F= -.24902550E+02 E0= -.24822168E+02  EK=  .51547E+01 SP=  .00E+00 SK=  .00E+00 mag=      1.000
       N       E                     dE             d eps       ncg     rms          rms(c)                                      
DAV:   1     -.248951032023E+02     .74335E-02    -.16838E+00 12272    .755E+00     .788E-03                                     
RMM:   2     -.249016653008E+02    -.65621E-02    -.14487E-03 11085    .421E-02     .273E-03                                     
RMM:   3     -.249020718503E+02    -.40655E-03    -.28069E-05  7437    .797E-03     .142E-03                                     
RMM:   4     -.249024583464E+02    -.38650E-03    -.42432E-06  5696    .487E-03     .483E-04                                     
RMM:   5     -.249026001119E+02    -.14177E-03    -.10013E-05  5264    .549E-03     .273E-04                                     
RMM:   6     -.249026327721E+02    -.32660E-04    -.23230E-06  3781    .403E-03     .137E-04                                     
RMM:   7     -.249026560835E+02    -.23311E-04    -.96470E-07  2882    .284E-03                                                  
   27 T=  3068. E= -.19747828E+02 F= -.24902656E+02 E0= -.24822274E+02  EK=  .51548E+01 SP=  .00E+00 SK=  .00E+00 mag=      1.000
       N       E                     dE             d eps       ncg     rms          rms(c)                                      
DAV:   1     -.248855822336E+02     .17051E-01    -.11311E+00 11648    .726E+00     .943E-03                                     
RMM:   2     -.249017435130E+02    -.16161E-01    -.94894E-02 10899    .132E-01     .255E-03                                     
RMM:   3     -.249025140936E+02    -.77058E-03    -.30170E-03  8320    .216E-02     .219E-03                                     
RMM:   4     -.249026167272E+02    -.10263E-03    -.10642E-04  4015    .673E-03     .144E-03                                     
RMM:   5     -.249026975533E+02    -.80826E-04    -.10256E-05  4433    .460E-03     .648E-04                                     
RMM:   6     -.249027608856E+02    -.63332E-04    -.69520E-06  5453    .595E-03     .323E-04                                     
RMM:   7     -.249027662435E+02    -.53580E-05    -.60864E-07  2156    .250E-03                                                  
   28 T=  3068. E= -.19747828E+02 F= -.24902766E+02 E0= -.24822384E+02  EK=  .51549E+01 SP=  .00E+00 SK=  .00E+00 mag=      1.000
       N       E                     dE             d eps       ncg     rms          rms(c)                                      
DAV:   1     -.248954140998E+02     .73468E-02    -.18599E+00 11736    .890E+00     .783E-03                                     
RMM:   2     -.249018647467E+02    -.64506E-02    -.23691E-04 11418    .306E-02     .322E-03                                     
RMM:   3     -.249024420914E+02    -.57734E-03    -.81629E-06  7974    .664E-03     .179E-03                                     
RMM:   4     -.249027391162E+02    -.29702E-03    -.18557E-05  6952    .621E-03     .486E-04                                     
RMM:   5     -.249028243547E+02    -.85239E-04    -.30613E-06  4174    .407E-03     .398E-04                                     
RMM:   6     -.249028542960E+02    -.29941E-04    -.15769E-06  3506    .331E-03                                                  
   29 T=  3068. E= -.19747803E+02 F= -.24902854E+02 E0= -.24822473E+02  EK=  .51551E+01 SP=  .00E+00 SK=  .00E+00 mag=      1.000
       N       E                     dE             d eps       ncg     rms          rms(c)                                      
DAV:   1     -.248949669789E+02     .78574E-02    -.13932E+00 12592    .926E+00     .797E-03                                     
RMM:   2     -.249022777663E+02    -.73108E-02    -.54941E-03 11575    .665E-02     .331E-03                                     
RMM:   3     -.249027336501E+02    -.45588E-03    -.83090E-05  8547    .113E-02     .210E-03                                     
RMM:   4     -.249028120967E+02    -.78447E-04    -.71414E-06  4901    .486E-03     .145E-03                                     
RMM:   5     -.249028409713E+02    -.28875E-04    -.12632E-05  5874    .542E-03                                                  
   30 T=  3068. E= -.19747675E+02 F= -.24902841E+02 E0= -.24822460E+02  EK=  .51552E+01 SP=  .00E+00 SK=  .00E+00 mag=      1.000
       N       E                     dE             d eps       ncg     rms          rms(c)                                      
DAV:   1     -.248899943827E+02     .12818E-01    -.26169E+00 12568    .905E+00     .881E-03                                     
RMM:   2     -.249020458465E+02    -.12051E-01    -.54698E-02 11636    .195E-01     .424E-03                                     
RMM:   3     -.249027282521E+02    -.68241E-03    -.10799E-03  9005    .236E-02     .179E-03                                     
RMM:   4     -.249028920197E+02    -.16377E-03    -.15016E-04  4803    .822E-03     .116E-03                                     
RMM:   5     -.249030523699E+02    -.16035E-03    -.10133E-05  5733    .521E-03     .343E-04                                     
RMM:   6     -.249030954345E+02    -.43065E-04    -.41868E-06  5099    .475E-03     .157E-04                                     
RMM:   7     -.249031012261E+02    -.57916E-05    -.85692E-07  2862    .269E-03                                                  
   31 T=  3068. E= -.19747818E+02 F= -.24903101E+02 E0= -.24822720E+02  EK=  .51553E+01 SP=  .00E+00 SK=  .00E+00 mag=      1.000
       N       E                     dE             d eps       ncg     rms          rms(c)                                      
DAV:   1     -.248915266405E+02     .11569E-01    -.15708E+00 12792    .752E+00     .835E-03                                     
RMM:   2     -.249023460846E+02    -.10819E-01    -.43051E-02 11410    .122E-01     .277E-03                                     
RMM:   3     -.249028865749E+02    -.54049E-03    -.11392E-03  8205    .197E-02     .139E-03                                     
RMM:   4     -.249029961340E+02    -.10956E-03    -.62514E-05  4591    .682E-03     .104E-03                                     
RMM:   5     -.249031494737E+02    -.15334E-03    -.93953E-06  5162    .476E-03     .347E-04                                     
RMM:   6     -.249032049536E+02    -.55480E-04    -.35854E-06  4438    .416E-03     .178E-04                                     
RMM:   7     -.249032187560E+02    -.13802E-04    -.23430E-06  3860    .372E-03                                                  
   32 T=  3068. E= -.19747818E+02 F= -.24903219E+02 E0= -.24822838E+02  EK=  .51554E+01 SP=  .00E+00 SK=  .00E+00 mag=      1.000
       N       E                     dE             d eps       ncg     rms          rms(c)                                      
DAV:   1     -.248956948062E+02     .75101E-02    -.10891E+00 12392    .725E+00     .797E-03                                     
RMM:   2     -.249024323211E+02    -.67375E-02    -.17664E-03 11219    .458E-02     .318E-03                                     
RMM:   3     -.249030527543E+02    -.62043E-03    -.34455E-05  7779    .103E-02     .187E-03                                     
RMM:   4     -.249030162770E+02     .36477E-04    -.70993E-06  5915    .604E-03     .751E-04                                     
RMM:   5     -.249031884668E+02    -.17219E-03    -.17141E-06  3920    .359E-03     .309E-04                                     
RMM:   6     -.249033266192E+02    -.13815E-03    -.72381E-06  5314    .561E-03     .185E-04                                     
RMM:   7     -.249033388450E+02    -.12226E-04    -.50778E-06  4250    .471E-03                                                  
   33 T=  3068. E= -.19747820E+02 F= -.24903339E+02 E0= -.24822958E+02  EK=  .51555E+01 SP=  .00E+00 SK=  .00E+00 mag=      1.000
       N       E                     dE             d eps       ncg     rms          rms(c)                                      
DAV:   1     -.248930259111E+02     .10301E-01    -.13097E+00 12400    .646E+00     .849E-03                                     
RMM:   2     -.249026888511E+02    -.96629E-02    -.29391E-02 11178    .863E-02     .250E-03                                     
RMM:   3     -.249031772771E+02    -.48843E-03    -.79859E-04  7666    .163E-02     .139E-03                                     
RMM:   4     -.249032370395E+02    -.59762E-04    -.16309E-04  4605    .660E-03     .111E-03                                     
RMM:   5     -.249033534625E+02    -.11642E-03    -.51026E-06  3818    .389E-03     .622E-04                                     
RMM:   6     -.249034336524E+02    -.80190E-04    -.53668E-06  5197    .576E-03     .251E-04                                     
RMM:   7     -.249034457192E+02    -.12067E-04    -.17897E-06  3487    .374E-03                                                  
   34 T=  3068. E= -.19747809E+02 F= -.24903446E+02 E0= -.24823065E+02  EK=  .51556E+01 SP=  .00E+00 SK=  .00E+00 mag=      1.000
       N       E                     dE             d eps       ncg     rms          rms(c)                                      
DAV:   1     -.248960701212E+02     .73635E-02    -.14221E+00 11992    .780E+00     .781E-03                                     
RMM:   2     -.249026259534E+02    -.65558E-02    -.62068E-04 11388    .397E-02     .209E-03                                     
RMM:   3     -.249030330722E+02    -.40712E-03    -.19773E-05  7401    .827E-03     .135E-03                                     
RMM:   4     -.249034204176E+02    -.38735E-03    -.61291E-06  5105    .505E-03     .575E-04                                     
RMM:   5     -.249035332541E+02    -.11284E-03    -.93856E-06  5304    .656E-03     .252E-04                                     
RMM:   6     -.249035582647E+02    -.25011E-04    -.33572E-06  3831    .399E-03                                                  
   35 T=  3068. E= -.19747802E+02 F= -.24903558E+02 E0= -.24823178E+02  EK=  .51558E+01 SP=  .00E+00 SK=  .00E+00 mag=       .999
       N       E                     dE             d eps       ncg     rms          rms(c)                                      
DAV:   1     -.248945964914E+02     .89368E-02    -.12208E+00 12712    .832E+00     .803E-03                                     
RMM:   2     -.249029161608E+02    -.83197E-02    -.17521E-02 11253    .996E-02     .200E-03                                     
RMM:   3     -.249032905570E+02    -.37440E-03    -.35545E-04  7505    .141E-02     .118E-03                                     
RMM:   4     -.249033968079E+02    -.10625E-03    -.18065E-05  4882    .552E-03     .794E-04                                     
RMM:   5     -.249036244358E+02    -.22763E-03    -.62590E-06  5454    .557E-03     .344E-04                                     
RMM:   6     -.249036616635E+02    -.37228E-04    -.34390E-06  4370    .453E-03     .201E-04                                     
RMM:   7     -.249036812852E+02    -.19622E-04    -.43024E-06  4691    .471E-03                                                  
   36 T=  3068. E= -.19747805E+02 F= -.24903681E+02 E0= -.24823302E+02  EK=  .51559E+01 SP=  .00E+00 SK=  .00E+00 mag=       .999
       N       E                     dE             d eps       ncg     rms          rms(c)                                      
DAV:   1     -.248909721486E+02     .12690E-01    -.73349E-01 12856    .758E+00     .854E-03                                     
RMM:   2     -.249028047533E+02    -.11833E-01    -.53187E-02 11519    .148E-01     .241E-03                                     
RMM:   3     -.249033576006E+02    -.55285E-03    -.10637E-03  7810    .209E-02     .153E-03                                     
RMM:   4     -.249035546144E+02    -.19701E-03    -.84805E-05  4710    .759E-03     .980E-04                                     
RMM:   5     -.249037492668E+02    -.19465E-03    -.17199E-05  5515    .611E-03     .420E-04                                     
RMM:   6     -.249037772926E+02    -.28026E-04    -.29596E-06  4024    .418E-03                                                  
   37 T=  3068. E= -.19747780E+02 F= -.24903777E+02 E0= -.24823398E+02  EK=  .51560E+01 SP=  .00E+00 SK=  .00E+00 mag=       .999
       N       E                     dE             d eps       ncg     rms          rms(c)                                      
DAV:   1     -.248958204476E+02     .79288E-02    -.13948E+00 12912    .743E+00     .795E-03                                     
RMM:   2     -.249030416866E+02    -.72212E-02    -.65691E-03 11286    .712E-02     .243E-03                                     
RMM:   3     -.249035935792E+02    -.55189E-03    -.10246E-04  7584    .114E-02     .127E-03                                     
RMM:   4     -.249038179917E+02    -.22441E-03    -.24547E-05  5937    .761E-03     .553E-04                                     
RMM:   5     -.249038732335E+02    -.55242E-04    -.74807E-06  4964    .496E-03     .318E-04                                     
RMM:   6     -.249039077403E+02    -.34507E-04    -.64768E-06  5087    .577E-03     .162E-04                                     
RMM:   7     -.249039212066E+02    -.13466E-04    -.70672E-06  4214    .496E-03                                                  
   38 T=  3068. E= -.19747803E+02 F= -.24903921E+02 E0= -.24823542E+02  EK=  .51561E+01 SP=  .00E+00 SK=  .00E+00 mag=       .999
       N       E                     dE             d eps       ncg     rms          rms(c)                                      
DAV:   1     -.248958516431E+02     .80561E-02    -.23217E+00 13080    .825E+00     .790E-03                                     
RMM:   2     -.249033592278E+02    -.75076E-02    -.98684E-03 11779    .834E-02     .221E-03                                     
RMM:   3     -.249037404806E+02    -.38125E-03    -.19198E-04  8041    .153E-02     .158E-03                                     
RMM:   4     -.249039052584E+02    -.16478E-03    -.21247E-05  5800    .669E-03     .841E-04                                     
RMM:   5     -.249039876859E+02    -.82427E-04    -.53418E-06  5026    .468E-03     .314E-04                                     
RMM:   6     -.249040345082E+02    -.46822E-04    -.18256E-05  5341    .658E-03     .196E-04                                     
RMM:   7     -.249040469955E+02    -.12487E-04    -.53982E-06  4249    .496E-03                                                  
   39 T=  3068. E= -.19747807E+02 F= -.24904047E+02 E0= -.24823668E+02  EK=  .51562E+01 SP=  .00E+00 SK=  .00E+00 mag=       .999
       N       E                     dE             d eps       ncg     rms          rms(c)                                      
DAV:   1     -.248967266864E+02     .73078E-02    -.20792E+00 13264    .842E+00     .783E-03                                     
RMM:   2     -.249035472555E+02    -.68206E-02    -.15478E-03 11617    .473E-02     .211E-03                                     
RMM:   3     -.249040180484E+02    -.47079E-03    -.30090E-05  8051    .102E-02     .114E-03                                     
RMM:   4     -.249040758809E+02    -.57832E-04    -.30846E-06  4698    .438E-03     .446E-04                                     
RMM:   5     -.249041650425E+02    -.89162E-04    -.26124E-05  5745    .810E-03     .186E-04                                     
RMM:   6     -.249041665015E+02    -.14590E-05    -.15413E-06  3649    .386E-03                                                  
   40 T=  3069. E= -.19747806E+02 F= -.24904167E+02 E0= -.24823788E+02  EK=  .51564E+01 SP=  .00E+00 SK=  .00E+00 mag=       .999
       N       E                     dE             d eps       ncg     rms          rms(c)                                      
DAV:   1     -.248961094245E+02     .80556E-02    -.89143E-01 12920    .786E+00     .791E-03                                     
RMM:   2     -.249036244360E+02    -.75150E-02    -.87446E-03 11818    .631E-02     .178E-03                                     
RMM:   3     -.249041324618E+02    -.50803E-03    -.24622E-04  8053    .136E-02     .998E-04                                     
RMM:   4     -.249041360546E+02    -.35927E-05    -.20026E-05  5707    .666E-03                                                  
   41 T=  3069. E= -.19747655E+02 F= -.24904136E+02 E0= -.24823759E+02  EK=  .51565E+01 SP=  .00E+00 SK=  .00E+00 mag=       .999
       N       E                     dE             d eps       ncg     rms          rms(c)                                      
DAV:   1     -.248956468224E+02     .84856E-02    -.78143E-01 12928    .714E+00     .807E-03                                     
RMM:   2     -.249035612425E+02    -.79144E-02    -.11460E-02 11832    .734E-02     .190E-03                                     
RMM:   3     -.249041122988E+02    -.55106E-03    -.20184E-04  8231    .128E-02     .887E-04                                     
RMM:   4     -.249043066835E+02    -.19438E-03    -.23432E-05  6029    .703E-03     .464E-04                                     
RMM:   5     -.249043754122E+02    -.68729E-04    -.14612E-05  5716    .673E-03     .200E-04                                     
RMM:   6     -.249043955760E+02    -.20164E-04    -.12964E-05  4768    .590E-03                                                  
   42 T=  3069. E= -.19747793E+02 F= -.24904396E+02 E0= -.24824018E+02  EK=  .51566E+01 SP=  .00E+00 SK=  .00E+00 mag=       .999
       N       E                     dE             d eps       ncg     rms          rms(c)                                      
DAV:   1     -.248958786581E+02     .84968E-02    -.20584E+00 14040    .782E+00     .786E-03                                     
RMM:   2     -.249039666627E+02    -.80880E-02    -.16932E-02 12150    .101E-01     .217E-03                                     
RMM:   3     -.249044142946E+02    -.44763E-03    -.20023E-04  8150    .140E-02     .122E-03                                     
RMM:   4     -.249044750534E+02    -.60759E-04    -.25514E-05  5961    .774E-03     .882E-04                                     
RMM:   5     -.249044770163E+02    -.19629E-05    -.55607E-06  4645    .472E-03                                                  
   43 T=  3069. E= -.19747754E+02 F= -.24904477E+02 E0= -.24824100E+02  EK=  .51567E+01 SP=  .00E+00 SK=  .00E+00 mag=       .999
       N       E                     dE             d eps       ncg     rms          rms(c)                                      
DAV:   1     -.248946332248E+02     .98418E-02    -.13194E+00 12944    .799E+00     .837E-03                                     
RMM:   2     -.249038999104E+02    -.92667E-02    -.26479E-02 11853    .105E-01     .207E-03                                     
RMM:   3     -.249044385476E+02    -.53864E-03    -.53462E-04  8155    .161E-02     .995E-04                                     
RMM:   4     -.249045075644E+02    -.69017E-04    -.41428E-05  4899    .602E-03     .720E-04                                     
RMM:   5     -.249046025063E+02    -.94942E-04    -.10475E-05  5473    .598E-03     .319E-04                                     
RMM:   6     -.249046377419E+02    -.35236E-04    -.27693E-05  5640    .804E-03     .132E-04                                     
RMM:   7     -.249046427029E+02    -.49610E-05    -.23431E-06  3471    .371E-03                                                  
   44 T=  3069. E= -.19747799E+02 F= -.24904643E+02 E0= -.24824266E+02  EK=  .51568E+01 SP=  .00E+00 SK=  .00E+00 mag=       .998
       N       E                     dE             d eps       ncg     rms          rms(c)                                      
DAV:   1     -.248969590875E+02     .76787E-02    -.14316E+00 13880    .732E+00     .795E-03                                     
RMM:   2     -.249037955455E+02    -.68365E-02    -.73732E-03 12132    .899E-02     .230E-03                                     
RMM:   3     -.249043831086E+02    -.58756E-03    -.19740E-04  8300    .160E-02     .127E-03                                     
RMM:   4     -.249046633825E+02    -.28027E-03    -.68710E-05  6811    .106E-02     .559E-04                                     
RMM:   5     -.249047293762E+02    -.65994E-04    -.10347E-05  5139    .589E-03     .268E-04                                     
RMM:   6     -.249047564964E+02    -.27120E-04    -.22593E-05  5490    .740E-03                                                  
   45 T=  3069. E= -.19747791E+02 F= -.24904756E+02 E0= -.24824380E+02  EK=  .51570E+01 SP=  .00E+00 SK=  .00E+00 mag=       .998
       N       E                     dE             d eps       ncg     rms          rms(c)                                      
DAV:   1     -.248972432722E+02     .74861E-02    -.61180E-01 13328    .659E+00     .787E-03                                     
RMM:   2     -.249041463889E+02    -.69031E-02    -.35377E-03 11331    .568E-02     .253E-03                                     
RMM:   3     -.249045327499E+02    -.38636E-03    -.55880E-05  8081    .126E-02     .154E-03                                     
RMM:   4     -.249047401418E+02    -.20739E-03    -.32384E-05  6239    .788E-03     .830E-04                                     
RMM:   5     -.249047936010E+02    -.53459E-04    -.43517E-06  4734    .488E-03     .448E-04                                     
RMM:   6     -.249048539644E+02    -.60363E-04    -.37690E-05  5732    .855E-03     .237E-04                                     
RMM:   7     -.249048770396E+02    -.23075E-04    -.21065E-05  5178    .681E-03                                                  
   46 T=  3069. E= -.19747790E+02 F= -.24904877E+02 E0= -.24824501E+02  EK=  .51571E+01 SP=  .00E+00 SK=  .00E+00 mag=       .998
       N       E                     dE             d eps       ncg     rms          rms(c)                                      
DAV:   1     -.248979539444E+02     .69000E-02    -.13609E+00 12936    .749E+00     .782E-03                                     
RMM:   2     -.249045292483E+02    -.65753E-02    -.52635E-04 11813    .353E-02     .265E-03                                     
RMM:   3     -.249048803307E+02    -.35108E-03    -.32438E-05  7865    .937E-03     .228E-03                                     
RMM:   4     -.249049260308E+02    -.45700E-04    -.29326E-06  4594    .415E-03     .177E-03                                     
RMM:   5     -.249049778586E+02    -.51828E-04    -.40371E-06  5120    .480E-03     .602E-04                                     
RMM:   6     -.249049947857E+02    -.16927E-04    -.56966E-06  4567    .489E-03                                                  
   47 T=  3069. E= -.19747789E+02 F= -.24904995E+02 E0= -.24824619E+02  EK=  .51572E+01 SP=  .00E+00 SK=  .00E+00 mag=       .998
       N       E                     dE             d eps       ncg     rms          rms(c)                                      
DAV:   1     -.248933477823E+02     .11630E-01    -.16213E+00 13808    .771E+00     .869E-03                                     
RMM:   2     -.249045723362E+02    -.11225E-01    -.46710E-02 12290    .142E-01     .272E-03                                     
RMM:   3     -.249050725976E+02    -.50026E-03    -.11301E-03  8953    .238E-02     .188E-03                                     
RMM:   4     -.249050726577E+02    -.60074E-07    -.11075E-04  6218    .107E-02                                                  
   48 T=  3069. E= -.19747751E+02 F= -.24905073E+02 E0= -.24824697E+02  EK=  .51573E+01 SP=  .00E+00 SK=  .00E+00 mag=       .998
       N       E                     dE             d eps       ncg     rms          rms(c)                                      
DAV:   1     -.248966833312E+02     .83893E-02    -.15296E+00 13208    .819E+00     .865E-03                                     
RMM:   2     -.249045333488E+02    -.78500E-02    -.15873E-02 12051    .871E-02     .342E-03                                     
RMM:   3     -.249049348427E+02    -.40149E-03    -.26011E-04  8165    .139E-02     .209E-03                                     
RMM:   4     -.249050719152E+02    -.13707E-03    -.19958E-05  6543    .702E-03     .706E-04                                     
RMM:   5     -.249052078486E+02    -.13593E-03    -.91264E-05  6604    .125E-02     .387E-04                                     
RMM:   6     -.249052225102E+02    -.14662E-04    -.26488E-05  5314    .750E-03                                                  
   49 T=  3069. E= -.19747783E+02 F= -.24905223E+02 E0= -.24824847E+02  EK=  .51574E+01 SP=  .00E+00 SK=  .00E+00 mag=       .998
       N       E                     dE             d eps       ncg     rms          rms(c)                                      
DAV:   1     -.248981364703E+02     .70714E-02    -.17556E+00 13728    .825E+00     .811E-03                                     
RMM:   2     -.249044272987E+02    -.62908E-02    -.24553E-03 12178    .566E-02     .257E-03                                     
RMM:   3     -.249051076304E+02    -.68033E-03    -.12341E-04  8247    .148E-02     .179E-03                                     
RMM:   4     -.249053050690E+02    -.19744E-03    -.24910E-05  5794    .662E-03     .936E-04                                     
RMM:   5     -.249053371668E+02    -.32098E-04    -.30748E-05  5537    .632E-03     .316E-04                                     
RMM:   6     -.249053446630E+02    -.74961E-05    -.11996E-06  3374    .296E-03                                                  
   50 T=  3069. E= -.19747789E+02 F= -.24905345E+02 E0= -.24824969E+02  EK=  .51576E+01 SP=  .00E+00 SK=  .00E+00 mag=       .997
       N       E                     dE             d eps       ncg     rms          rms(c)                                      
DAV:   1     -.248987076921E+02     .66295E-02    -.13954E+00 13544    .702E+00     .797E-03                                     
RMM:   2     -.249051071747E+02    -.63995E-02    -.16005E-03 12020    .509E-02     .204E-03                                     
RMM:   3     -.249053624326E+02    -.25526E-03    -.33348E-05  8194    .102E-02     .126E-03                                     
RMM:   4     -.249054173509E+02    -.54918E-04    -.11492E-05  5406    .566E-03     .880E-04                                     
RMM:   5     -.249054362427E+02    -.18892E-04    -.82066E-06  5256    .562E-03                                                  
   51 T=  3069. E= -.19747767E+02 F= -.24905436E+02 E0= -.24825062E+02  EK=  .51577E+01 SP=  .00E+00 SK=  .00E+00 mag=       .997
       N       E                     dE             d eps       ncg     rms          rms(c)                                      
DAV:   1     -.248968805649E+02     .85368E-02    -.19631E+00 13344    .796E+00     .798E-03                                     
RMM:   2     -.249049791897E+02    -.80986E-02    -.15015E-02 11759    .834E-02     .212E-03                                     
RMM:   3     -.249053217100E+02    -.34252E-03    -.19125E-04  8443    .158E-02     .127E-03                                     
RMM:   4     -.249054843130E+02    -.16260E-03    -.68163E-05  6475    .993E-03     .671E-04                                     
RMM:   5     -.249055515349E+02    -.67222E-04    -.49690E-05  6337    .106E-02     .340E-04                                     
RMM:   6     -.249055606570E+02    -.91221E-05    -.63931E-06  4555    .492E-03                                                  
   52 T=  3069. E= -.19747778E+02 F= -.24905561E+02 E0= -.24825186E+02  EK=  .51578E+01 SP=  .00E+00 SK=  .00E+00 mag=       .997
       N       E                     dE             d eps       ncg     rms          rms(c)                                      
DAV:   1     -.248850569053E+02     .20495E-01    -.19126E+00 14248    .832E+00     .107E-02                                     
RMM:   2     -.249054214336E+02    -.20365E-01    -.14089E-01 12695    .242E-01     .395E-03                                     
RMM:   3     -.249055370862E+02    -.11565E-03    -.23698E-03  9635    .329E-02     .220E-03                                     
RMM:   4     -.249055839141E+02    -.46828E-04    -.21481E-04  5167    .853E-03     .168E-03                                     
RMM:   5     -.249055968161E+02    -.12902E-04    -.93784E-06  4630    .440E-03                                                  
   53 T=  3069. E= -.19747701E+02 F= -.24905597E+02 E0= -.24825223E+02  EK=  .51579E+01 SP=  .00E+00 SK=  .00E+00 mag=       .997
       N       E                     dE             d eps       ncg     rms          rms(c)                                      
DAV:   1     -.248970879536E+02     .84960E-02    -.25433E+00 14216    .777E+00     .848E-03                                     
RMM:   2     -.249050469762E+02    -.79590E-02    -.19883E-02 12614    .106E-01     .263E-03                                     
RMM:   3     -.249056022650E+02    -.55529E-03    -.42229E-04  8557    .180E-02     .138E-03                                     
RMM:   4     -.249057216264E+02    -.11936E-03    -.36721E-05  5895    .750E-03     .754E-04                                     
RMM:   5     -.249057713351E+02    -.49709E-04    -.21745E-05  5574    .655E-03     .447E-04                                     
RMM:   6     -.249057784326E+02    -.70976E-05    -.68469E-07  3185    .295E-03                                                  
   54 T=  3070. E= -.19747771E+02 F= -.24905778E+02 E0= -.24825405E+02  EK=  .51580E+01 SP=  .00E+00 SK=  .00E+00 mag=       .996
       N       E                     dE             d eps       ncg     rms          rms(c)                                      
DAV:   1     -.248972999128E+02     .84714E-02    -.59686E-01 14664    .797E+00     .828E-03                                     
RMM:   2     -.249055749256E+02    -.82750E-02    -.22083E-02 12714    .121E-01     .282E-03                                     
RMM:   3     -.249058553830E+02    -.28046E-03    -.46824E-04  8749    .203E-02     .265E-03                                     
RMM:   4     -.249057845688E+02     .70814E-04    -.11448E-04  7370    .153E-02     .175E-03                                     
RMM:   5     -.249058014296E+02    -.16861E-04    -.39414E-06  4821    .407E-03                                                  
   55 T=  3070. E= -.19747686E+02 F= -.24905801E+02 E0= -.24825429E+02  EK=  .51581E+01 SP=  .00E+00 SK=  .00E+00 mag=       .996
       N       E                     dE             d eps       ncg     rms          rms(c)                                      
DAV:   1     -.248986883327E+02     .70962E-02    -.78920E-01 13480    .717E+00     .800E-03                                     
RMM:   2     -.249052546006E+02    -.65663E-02    -.90257E-04 12296    .482E-02     .272E-03                                     
RMM:   3     -.249057033547E+02    -.44875E-03    -.42300E-05  8444    .129E-02     .137E-03                                     
RMM:   4     -.249059469923E+02    -.24364E-03    -.13163E-04  7159    .140E-02     .503E-04                                     
RMM:   5     -.249059882489E+02    -.41257E-04    -.45886E-05  5873    .947E-03     .306E-04                                     
RMM:   6     -.249059842349E+02     .40140E-05    -.11169E-05  4779    .559E-03                                                  
   56 T=  3070. E= -.19747759E+02 F= -.24905984E+02 E0= -.24825612E+02  EK=  .51582E+01 SP=  .00E+00 SK=  .00E+00 mag=       .996
       N       E                     dE             d eps       ncg     rms          rms(c)                                      
DAV:   1     -.248998455035E+02     .61427E-02    -.95309E-01 15224    .650E+00     .784E-03                                     
RMM:   2     -.249056918763E+02    -.58464E-02    -.45126E-03 12704    .847E-02     .223E-03                                     
RMM:   3     -.249059521778E+02    -.26030E-03    -.70064E-05  8170    .104E-02     .137E-03                                     
RMM:   4     -.249060514693E+02    -.99291E-04    -.31307E-05  5954    .663E-03     .839E-04                                     
RMM:   5     -.249061127089E+02    -.61240E-04    -.38028E-05  5871    .819E-03     .394E-04                                     
RMM:   6     -.249061138009E+02    -.10920E-05    -.70584E-07  3027    .297E-03                                                  
   57 T=  3070. E= -.19747781E+02 F= -.24906114E+02 E0= -.24825741E+02  EK=  .51583E+01 SP=  .00E+00 SK=  .00E+00 mag=       .996
       N       E                     dE             d eps       ncg     rms          rms(c)                                      
DAV:   1     -.248999528726E+02     .61598E-02    -.76745E-01 13856    .639E+00     .794E-03                                     
RMM:   2     -.249059830911E+02    -.60302E-02    -.18076E-03 12266    .540E-02     .209E-03                                     
RMM:   3     -.249061530159E+02    -.16992E-03    -.44246E-05  8097    .105E-02     .110E-03                                     
RMM:   4     -.249062131263E+02    -.60110E-04    -.13902E-05  5696    .589E-03     .444E-04                                     
RMM:   5     -.249062219234E+02    -.87971E-05    -.13533E-06  3808    .337E-03                                                  
   58 T=  3070. E= -.19747783E+02 F= -.24906222E+02 E0= -.24825849E+02  EK=  .51584E+01 SP=  .00E+00 SK=  .00E+00 mag=       .995
       N       E                     dE             d eps       ncg     rms          rms(c)                                      
DAV:   1     -.248978836456E+02     .83295E-02    -.65483E-01 14000    .689E+00     .811E-03                                     
RMM:   2     -.249059766352E+02    -.80930E-02    -.25159E-02 12413    .129E-01     .212E-03                                     
RMM:   3     -.249062991244E+02    -.32249E-03    -.53115E-04  8783    .209E-02     .121E-03                                     
RMM:   4     -.249063167189E+02    -.17595E-04    -.37891E-05  5254    .632E-03                                                  
   59 T=  3070. E= -.19747769E+02 F= -.24906317E+02 E0= -.24825945E+02  EK=  .51585E+01 SP=  .00E+00 SK=  .00E+00 mag=       .995
       N       E                     dE             d eps       ncg     rms          rms(c)                                      
DAV:   1     -.248999072327E+02     .63919E-02    -.18445E+00 13976    .787E+00     .822E-03                                     
RMM:   2     -.249062042797E+02    -.62970E-02    -.72273E-03 12552    .781E-02     .200E-03                                     
RMM:   3     -.249063862664E+02    -.18199E-03    -.15017E-04  8687    .139E-02     .124E-03                                     
RMM:   4     -.249064239305E+02    -.37664E-04    -.17850E-05  5800    .670E-03     .672E-04                                     
RMM:   5     -.249064268937E+02    -.29632E-05    -.16084E-06  4129    .364E-03                                                  
   60 T=  3070. E= -.19747772E+02 F= -.24906427E+02 E0= -.24826055E+02  EK=  .51587E+01 SP=  .00E+00 SK=  .00E+00 mag=       .994
       N       E                     dE             d eps       ncg     rms          rms(c)                                      
DAV:   1     -.249005386064E+02     .58853E-02    -.24638E+00 13992    .878E+00     .788E-03                                     
RMM:   2     -.249062239555E+02    -.56853E-02    -.20668E-03 12613    .646E-02     .218E-03                                     
RMM:   3     -.249064871381E+02    -.26318E-03    -.13195E-04  8624    .144E-02     .103E-03                                     
RMM:   4     -.249065222472E+02    -.35109E-04    -.43708E-06  5337    .451E-03     .590E-04                                     
RMM:   5     -.249065325958E+02    -.10349E-04    -.34929E-06  4182    .404E-03                                                  
   61 T=  3070. E= -.19747772E+02 F= -.24906533E+02 E0= -.24826161E+02  EK=  .51588E+01 SP=  .00E+00 SK=  .00E+00 mag=       .994
       N       E                     dE             d eps       ncg     rms          rms(c)                                      
DAV:   1     -.248974121344E+02     .91101E-02    -.13686E+00 14368    .739E+00     .849E-03                                     
RMM:   2     -.249064436427E+02    -.90315E-02    -.34539E-02 13044    .145E-01     .237E-03                                     
RMM:   3     -.249065933543E+02    -.14971E-03    -.36913E-04  8550    .173E-02     .136E-03                                     
RMM:   4     -.249066146110E+02    -.21257E-04    -.17039E-05  5131    .578E-03                                                  
   62 T=  3070. E= -.19747746E+02 F= -.24906615E+02 E0= -.24826244E+02  EK=  .51589E+01 SP=  .00E+00 SK=  .00E+00 mag=       .994
       N       E                     dE             d eps       ncg     rms          rms(c)                                      
DAV:   1     -.249005989504E+02     .59944E-02    -.88140E-01 14616    .800E+00     .817E-03                                     
RMM:   2     -.249065719095E+02    -.59730E-02    -.74287E-03 13095    .981E-02     .247E-03                                     
RMM:   3     -.249066971501E+02    -.12524E-03    -.16120E-04  8841    .155E-02     .128E-03                                     
RMM:   4     -.249067215603E+02    -.24410E-04    -.10180E-05  5203    .518E-03                                                  
   63 T=  3070. E= -.19747744E+02 F= -.24906722E+02 E0= -.24826351E+02  EK=  .51590E+01 SP=  .00E+00 SK=  .00E+00 mag=       .993
       N       E                     dE             d eps       ncg     rms          rms(c)                                      
DAV:   1     -.249008559667E+02     .58412E-02    -.11866E+00 14336    .789E+00     .816E-03                                     
RMM:   2     -.249067357803E+02    -.58798E-02    -.11130E-02 12837    .990E-02     .305E-03                                     
RMM:   3     -.249068015089E+02    -.65729E-04    -.16174E-04  8891    .133E-02     .177E-03                                     
RMM:   4     -.249068135826E+02    -.12074E-04    -.10857E-05  5459    .497E-03                                                  
   64 T=  3070. E= -.19747726E+02 F= -.24906814E+02 E0= -.24826443E+02  EK=  .51591E+01 SP=  .00E+00 SK=  .00E+00 mag=       .993
       N       E                     dE             d eps       ncg     rms          rms(c)                                      
DAV:   1     -.249009640294E+02     .58375E-02    -.20973E+00 14632    .942E+00     .803E-03                                     
RMM:   2     -.249067253368E+02    -.57613E-02    -.78061E-03 12996    .960E-02     .380E-03                                     
RMM:   3     -.249068979217E+02    -.17258E-03    -.19686E-04 10039    .166E-02     .171E-03                                     
RMM:   4     -.249069111243E+02    -.13203E-04    -.86477E-06  5486    .492E-03                                                  
   65 T=  3070. E= -.19747713E+02 F= -.24906911E+02 E0= -.24826541E+02  EK=  .51592E+01 SP=  .00E+00 SK=  .00E+00 mag=       .992
       N       E                     dE             d eps       ncg     rms          rms(c)                                      
DAV:   1     -.248987763802E+02     .81215E-02    -.24968E+00 14904    .983E+00     .848E-03                                     
RMM:   2     -.249067692923E+02    -.79929E-02    -.30853E-02 13381    .169E-01     .344E-03                                     
RMM:   3     -.249069958070E+02    -.22651E-03    -.82011E-04 10072    .218E-02     .148E-03                                     
RMM:   4     -.249070361229E+02    -.40316E-04    -.64176E-05  6269    .960E-03     .111E-03                                     
RMM:   5     -.249070520555E+02    -.15933E-04    -.15550E-05  5388    .542E-03                                                  
   66 T=  3070. E= -.19747743E+02 F= -.24907052E+02 E0= -.24826683E+02  EK=  .51593E+01 SP=  .00E+00 SK=  .00E+00 mag=       .992
       N       E                     dE             d eps       ncg     rms          rms(c)                                      
DAV:   1     -.248943654115E+02     .12671E-01    -.27141E+00 14904    .860E+00     .944E-03                                     
RMM:   2     -.249069754271E+02    -.12610E-01    -.79187E-02 13678    .202E-01     .593E-03                                     
RMM:   3     -.249071247412E+02    -.14931E-03    -.13867E-03 10217    .298E-02     .245E-03                                     
RMM:   4     -.249071484658E+02    -.23725E-04    -.75733E-05  5442    .759E-03                                                  
   67 T=  3070. E= -.19747727E+02 F= -.24907148E+02 E0= -.24826779E+02  EK=  .51594E+01 SP=  .00E+00 SK=  .00E+00 mag=       .991
       N       E                     dE             d eps       ncg     rms          rms(c)                                      
DAV:   1     -.249020586136E+02     .50661E-02    -.49962E+00 14320    .867E+00     .892E-03                                     
RMM:   2     -.249070807786E+02    -.50222E-02    -.36443E-03 13159    .809E-02     .419E-03                                     
RMM:   3     -.249071476171E+02    -.66839E-04    -.32224E-05  9728    .102E-02     .277E-03                                     
RMM:   4     -.249072195783E+02    -.71961E-04    -.43776E-06  5431    .484E-03     .195E-03                                     
RMM:   5     -.249072708658E+02    -.51287E-04    -.94145E-06  6379    .625E-03     .780E-04                                     
RMM:   6     -.249072747234E+02    -.38576E-05    -.17758E-06  3999    .380E-03                                                  
   68 T=  3070. E= -.19747738E+02 F= -.24907275E+02 E0= -.24826906E+02  EK=  .51595E+01 SP=  .00E+00 SK=  .00E+00 mag=       .990
       N       E                     dE             d eps       ncg     rms          rms(c)                                      
DAV:   1     -.249026904412E+02     .45804E-02    -.12409E+00 15216    .866E+00     .887E-03                                     
RMM:   2     -.249072140996E+02    -.45237E-02    -.73509E-03 13260    .115E-01     .370E-03                                     
RMM:   3     -.249073172900E+02    -.10319E-03    -.14507E-04  9572    .169E-02     .208E-03                                     
RMM:   4     -.249073527625E+02    -.35472E-04    -.82110E-06  5778    .527E-03     .154E-03                                     
RMM:   5     -.249073856060E+02    -.32844E-04    -.67299E-06  4901    .443E-03     .525E-04                                     
RMM:   6     -.249073884705E+02    -.28645E-05    -.42409E-07  3003    .278E-03                                                  
   69 T=  3071. E= -.19747735E+02 F= -.24907388E+02 E0= -.24827020E+02  EK=  .51597E+01 SP=  .00E+00 SK=  .00E+00 mag=       .990
       N       E                     dE             d eps       ncg     rms          rms(c)                                      
DAV:   1     -.249016975144E+02     .56881E-02    -.17352E+00 15208    .804E+00     .845E-03                                     
RMM:   2     -.249073119226E+02    -.56144E-02    -.16453E-02 13327    .143E-01     .370E-03                                     
RMM:   3     -.249074942583E+02    -.18234E-03    -.36371E-04  9334    .215E-02     .240E-03                                     
RMM:   4     -.249075046561E+02    -.10398E-04    -.20903E-05  6143    .640E-03                                                  
   70 T=  3071. E= -.19747731E+02 F= -.24907505E+02 E0= -.24827137E+02  EK=  .51598E+01 SP=  .00E+00 SK=  .00E+00 mag=       .989
       N       E                     dE             d eps       ncg     rms          rms(c)                                      
DAV:   1     -.249025886492E+02     .49056E-02    -.10508E+00 14608    .646E+00     .919E-03                                     
RMM:   2     -.249075498511E+02    -.49612E-02    -.12397E-02 13054    .121E-01     .361E-03                                     
RMM:   3     -.249075922647E+02    -.42414E-04    -.13019E-04  9767    .147E-02     .296E-03                                     
RMM:   4     -.249076172539E+02    -.24989E-04    -.91537E-06  5474    .522E-03                                                  
   71 T=  3071. E= -.19747715E+02 F= -.24907617E+02 E0= -.24827250E+02  EK=  .51599E+01 SP=  .00E+00 SK=  .00E+00 mag=       .988
       N       E                     dE             d eps       ncg     rms          rms(c)                                      
DAV:   1     -.249029864282E+02     .46058E-02    -.28225E+00 15096    .932E+00     .881E-03                                     
RMM:   2     -.249073445767E+02    -.43581E-02    -.63331E-03 14748    .118E-01     .575E-03                                     
RMM:   3     -.249077350500E+02    -.39047E-03    -.49617E-04 10987    .267E-02     .162E-03                                     
RMM:   4     -.249077318070E+02     .32429E-05    -.14481E-05  6076    .678E-03                                                  
   72 T=  3071. E= -.19747696E+02 F= -.24907732E+02 E0= -.24827365E+02  EK=  .51600E+01 SP=  .00E+00 SK=  .00E+00 mag=       .988
       N       E                     dE             d eps       ncg     rms          rms(c)                                      
DAV:   1     -.248929950001E+02     .14740E-01    -.26830E+00 15672    .991E+00     .131E-02                                     
RMM:   2     -.249076277995E+02    -.14633E-01    -.11202E-01 14705    .295E-01     .731E-03                                     
RMM:   3     -.249077971982E+02    -.16940E-03    -.12098E-03 10202    .294E-02     .306E-03                                     
RMM:   4     -.249078457692E+02    -.48571E-04    -.81362E-05  6373    .997E-03     .240E-03                                     
RMM:   5     -.249078750199E+02    -.29251E-04    -.13792E-05  5424    .576E-03                                                  
   73 T=  3071. E= -.19747700E+02 F= -.24907875E+02 E0= -.24827509E+02  EK=  .51602E+01 SP=  .00E+00 SK=  .00E+00 mag=       .987
       N       E                     dE             d eps       ncg     rms          rms(c)                                      
DAV:   1     -.249045369010E+02     .33089E-02    -.19991E+00 14880    .883E+00     .883E-03                                     
RMM:   2     -.249079728607E+02    -.34360E-02    -.51795E-03 13452    .114E-01     .241E-03                                     
RMM:   3     -.249080231184E+02    -.50258E-04    -.62888E-05  9345    .116E-02     .190E-03                                     
RMM:   4     -.249080404943E+02    -.17376E-04    -.68319E-06  5718    .532E-03                                                  
   74 T=  3071. E= -.19747716E+02 F= -.24908040E+02 E0= -.24827674E+02  EK=  .51603E+01 SP=  .00E+00 SK=  .00E+00 mag=       .986
       N       E                     dE             d eps       ncg     rms          rms(c)                                      
DAV:   1     -.249042755596E+02     .37476E-02    -.14150E+00 14584    .763E+00     .861E-03                                     
RMM:   2     -.249081279503E+02    -.38524E-02    -.13444E-02 13206    .121E-01     .286E-03                                     
RMM:   3     -.249081744980E+02    -.46548E-04    -.14222E-04  8845    .115E-02     .181E-03                                     
RMM:   4     -.249081840291E+02    -.95311E-05    -.12705E-05  5356    .473E-03                                                  
   75 T=  3071. E= -.19747696E+02 F= -.24908184E+02 E0= -.24827819E+02  EK=  .51605E+01 SP=  .00E+00 SK=  .00E+00 mag=       .985
       N       E                     dE             d eps       ncg     rms          rms(c)                                      
DAV:   1     -.249052349287E+02     .29396E-02    -.14364E+00 14632    .750E+00     .904E-03                                     
RMM:   2     -.249082713233E+02    -.30364E-02    -.58711E-03 13367    .111E-01     .451E-03                                     
RMM:   3     -.249083266221E+02    -.55299E-04    -.76796E-05  8770    .112E-02     .335E-03                                     
RMM:   4     -.249083571321E+02    -.30510E-04    -.12420E-05  7742    .644E-03     .156E-03                                     
RMM:   5     -.249083633882E+02    -.62562E-05    -.23194E-06  5200    .395E-03                                                  
   76 T=  3071. E= -.19747701E+02 F= -.24908363E+02 E0= -.24827999E+02  EK=  .51607E+01 SP=  .00E+00 SK=  .00E+00 mag=       .984
       N       E                     dE             d eps       ncg     rms          rms(c)                                      
DAV:   1     -.249049694143E+02     .33877E-02    -.24247E+00 14240    .770E+00     .845E-03                                     
RMM:   2     -.249084532320E+02    -.34838E-02    -.95564E-03 13093    .125E-01     .305E-03                                     
RMM:   3     -.249085016113E+02    -.48379E-04    -.95514E-05  9094    .122E-02     .191E-03                                     
RMM:   4     -.249085030369E+02    -.14256E-05    -.66365E-06  4946    .464E-03                                                  
   77 T=  3071. E= -.19747656E+02 F= -.24908503E+02 E0= -.24828140E+02  EK=  .51608E+01 SP=  .00E+00 SK=  .00E+00 mag=       .983
       N       E                     dE             d eps       ncg     rms          rms(c)                                      
DAV:   1     -.249049198996E+02     .35817E-02    -.73482E-01 14792    .748E+00     .891E-03                                     
RMM:   2     -.249086142716E+02    -.36944E-02    -.12779E-02 13351    .138E-01     .473E-03                                     
[...]
RMM:   3     -.248856035958E+02    -.55704E-03    -.19849E-03  8092    .188E-02     .681E-03                                     
RMM:   4     -.248871853737E+02    -.15818E-02    -.99051E-05  4863    .587E-03     .341E-03                                     
RMM:   5     -.248886784597E+02    -.14931E-02    -.12760E-05  5248    .440E-03     .246E-03                                     
RMM:   6     -.248896407312E+02    -.96227E-03    -.18724E-06  4009    .351E-03     .664E-04                                     
RMM:   7     -.248898225053E+02    -.18177E-03    -.23328E-06  4560    .416E-03     .259E-04                                     
RMM:   8     -.248898252467E+02    -.27414E-05    -.88204E-08  2039    .254E-03                                                  
  729 T=  3062. E= -.19744916E+02 F= -.24889825E+02 E0= -.24809206E+02  EK=  .51449E+01 SP=  .00E+00 SK=  .00E+00 mag=      1.000
       N       E                     dE             d eps       ncg     rms          rms(c)                                      
DAV:   1     -.248818405026E+02     .79820E-02    -.15934E+00 11224    .545E+00     .797E-03                                     
RMM:   2     -.248841566862E+02    -.23162E-02    -.33978E-03 10121    .329E-02     .591E-03                                     
RMM:   3     -.248870020995E+02    -.28454E-02    -.49811E-05  7686    .697E-03     .590E-03                                     
RMM:   4     -.248891512819E+02    -.21492E-02    -.84995E-06  6082    .475E-03     .166E-03                                     
RMM:   5     -.248896821617E+02    -.53088E-03    -.26504E-06  4615    .389E-03     .124E-03                                     
RMM:   6     -.248896625596E+02     .19602E-04    -.83792E-07  3216    .316E-03                                                  
  730 T=  3062. E= -.19744924E+02 F= -.24889663E+02 E0= -.24809044E+02  EK=  .51447E+01 SP=  .00E+00 SK=  .00E+00 mag=      1.000
       N       E                     dE             d eps       ncg     rms          rms(c)                                      
DAV:   1     -.248810093167E+02     .86728E-02    -.18272E+00 11264    .551E+00     .824E-03                                     
RMM:   2     -.248841406017E+02    -.31313E-02    -.12117E-02 10614    .591E-02     .598E-03                                     
RMM:   3     -.248876099650E+02    -.34694E-02    -.19697E-04  5816    .921E-03     .239E-03                                     
RMM:   4     -.248892517434E+02    -.16418E-02    -.22166E-05  5661    .545E-03     .296E-03                                     
RMM:   5     -.248894785479E+02    -.22680E-03    -.32534E-06  4617    .427E-03     .635E-04                                     
RMM:   6     -.248894488783E+02     .29670E-04    -.24492E-07  2723    .269E-03                                                  
  731 T=  3062. E= -.19744881E+02 F= -.24889449E+02 E0= -.24808830E+02  EK=  .51446E+01 SP=  .00E+00 SK=  .00E+00 mag=      1.000
       N       E                     dE             d eps       ncg     rms          rms(c)                                      
DAV:   1     -.248818387614E+02     .76398E-02    -.77863E-01 11320    .601E+00     .785E-03                                     
RMM:   2     -.248840702804E+02    -.22315E-02    -.33916E-03 10527    .430E-02     .577E-03                                     
RMM:   3     -.248872586101E+02    -.31883E-02    -.45441E-05  7706    .794E-03     .423E-03                                     
RMM:   4     -.248889858851E+02    -.17273E-02    -.57046E-06  5988    .485E-03     .261E-03                                     
RMM:   5     -.248892929340E+02    -.30705E-03    -.33497E-06  5119    .443E-03     .113E-03                                     
RMM:   6     -.248892607674E+02     .32167E-04    -.17643E-07  2546    .254E-03     .413E-04                                     
RMM:   7     -.248892966884E+02    -.35921E-04    -.29194E-08  2145    .230E-03     .288E-04                                     
RMM:   8     -.248893415216E+02    -.44833E-04    -.12906E-07  2569    .237E-03     .736E-05                                     
RMM:   9     -.248893505103E+02    -.89886E-05    -.70932E-08  2077    .239E-03                                                  
  732 T=  3061. E= -.19744954E+02 F= -.24889351E+02 E0= -.24808732E+02  EK=  .51444E+01 SP=  .00E+00 SK=  .00E+00 mag=      1.000
       N       E                     dE             d eps       ncg     rms          rms(c)                                      
DAV:   1     -.248814859538E+02     .78556E-02    -.62298E-01 11256    .553E+00     .799E-03                                     
RMM:   2     -.248836345967E+02    -.21486E-02    -.16345E-03 10557    .347E-02     .586E-03                                     
RMM:   3     -.248882151551E+02    -.45806E-02    -.30953E-05  6941    .747E-03     .245E-03                                     
RMM:   4     -.248891720187E+02    -.95686E-03    -.60401E-06  5789    .520E-03     .203E-03                                     
RMM:   5     -.248890437346E+02     .12828E-03    -.15712E-06  3943    .367E-03     .122E-03                                     
RMM:   6     -.248891034764E+02    -.59742E-04    -.13634E-07  2490    .250E-03     .415E-04                                     
RMM:   7     -.248891422421E+02    -.38766E-04    -.44357E-08  2309    .239E-03     .247E-04                                     
RMM:   8     -.248891749538E+02    -.32712E-04    -.18107E-07  2705    .254E-03     .554E-05                                     
RMM:   9     -.248891768350E+02    -.18812E-05    -.28352E-08  1769    .237E-03                                                  
  733 T=  3061. E= -.19744951E+02 F= -.24889177E+02 E0= -.24808559E+02  EK=  .51442E+01 SP=  .00E+00 SK=  .00E+00 mag=      1.000
       N       E                     dE             d eps       ncg     rms          rms(c)                                      
DAV:   1     -.248813519615E+02     .78230E-02    -.39034E-01 11048    .552E+00     .805E-03                                     
RMM:   2     -.248836298873E+02    -.22779E-02    -.35632E-03 10472    .381E-02     .588E-03                                     
RMM:   3     -.248871897532E+02    -.35599E-02    -.43786E-05  6257    .674E-03     .244E-03                                     
RMM:   4     -.248885437957E+02    -.13540E-02    -.43156E-06  5162    .432E-03     .250E-03                                     
RMM:   5     -.248889611456E+02    -.41735E-03    -.11094E-06  3825    .338E-03     .152E-03                                     
RMM:   6     -.248889512056E+02     .99400E-05    -.12683E-06  3942    .358E-03                                                  
  734 T=  3061. E= -.19744897E+02 F= -.24888951E+02 E0= -.24808333E+02  EK=  .51441E+01 SP=  .00E+00 SK=  .00E+00 mag=      1.000
       N       E                     dE             d eps       ncg     rms          rms(c)                                      
DAV:   1     -.248763885928E+02     .12573E-01    -.20468E+00 10960    .584E+00     .911E-03                                     
RMM:   2     -.248833804380E+02    -.69918E-02    -.50270E-02 10433    .844E-02     .613E-03                                     
RMM:   3     -.248846970897E+02    -.13167E-02    -.16748E-03  7973    .152E-02     .698E-03                                     
RMM:   4     -.248856915845E+02    -.99449E-03    -.96568E-05  4625    .572E-03     .367E-03                                     
RMM:   5     -.248880692015E+02    -.23776E-02    -.89043E-06  4573    .409E-03     .136E-03                                     
RMM:   6     -.248886530166E+02    -.58382E-03    -.14993E-06  3788    .332E-03     .863E-04                                     
RMM:   7     -.248888191359E+02    -.16612E-03    -.17900E-06  4185    .375E-03     .299E-04                                     
RMM:   8     -.248888031974E+02     .15938E-04    -.16117E-07  2238    .264E-03                                                  
  735 T=  3061. E= -.19744920E+02 F= -.24888803E+02 E0= -.24808186E+02  EK=  .51439E+01 SP=  .00E+00 SK=  .00E+00 mag=      1.000
       N       E                     dE             d eps       ncg     rms          rms(c)                                      
DAV:   1     -.248810689461E+02     .77502E-02    -.45778E-01 11200    .656E+00     .791E-03                                     
RMM:   2     -.248831608354E+02    -.20919E-02    -.12276E-03 10594    .316E-02     .581E-03                                     
RMM:   3     -.248879091053E+02    -.47483E-02    -.18905E-05  6855    .670E-03     .226E-03                                     
RMM:   4     -.248885163932E+02    -.60729E-03    -.24212E-06  4565    .402E-03     .234E-03                                     
RMM:   5     -.248885765007E+02    -.60107E-04    -.22564E-06  4422    .398E-03     .755E-04                                     
RMM:   6     -.248885984445E+02    -.21944E-04    -.78203E-08  2303    .241E-03                                                  
  736 T=  3061. E= -.19744887E+02 F= -.24888598E+02 E0= -.24807981E+02  EK=  .51437E+01 SP=  .00E+00 SK=  .00E+00 mag=      1.000
       N       E                     dE             d eps       ncg     rms          rms(c)                                      
DAV:   1     -.248807928366E+02     .77837E-02    -.14071E+00 11160    .677E+00     .815E-03                                     
RMM:   2     -.248831502861E+02    -.23574E-02    -.45077E-03 10742    .376E-02     .592E-03                                     
RMM:   3     -.248872434452E+02    -.40932E-02    -.10674E-04  6829    .741E-03     .220E-03                                     
RMM:   4     -.248882355111E+02    -.99207E-03    -.13704E-05  4803    .446E-03     .205E-03                                     
RMM:   5     -.248884773459E+02    -.24183E-03    -.33810E-06  4350    .401E-03     .150E-03                                     
RMM:   6     -.248884046287E+02     .72717E-04    -.74533E-07  2878    .294E-03     .343E-04                                     
RMM:   7     -.248884275126E+02    -.22884E-04    -.68259E-08  2099    .250E-03                                                  
  737 T=  3061. E= -.19744887E+02 F= -.24888428E+02 E0= -.24807811E+02  EK=  .51435E+01 SP=  .00E+00 SK=  .00E+00 mag=      1.000
       N       E                     dE             d eps       ncg     rms          rms(c)                                      
DAV:   1     -.248805047767E+02     .78999E-02    -.14520E+00 11496    .735E+00     .791E-03                                     
RMM:   2     -.248828555600E+02    -.23508E-02    -.39739E-03 10593    .429E-02     .580E-03                                     
RMM:   3     -.248873336143E+02    -.44781E-02    -.57257E-05  6869    .763E-03     .164E-03                                     
RMM:   4     -.248881073225E+02    -.77371E-03    -.46841E-06  4981    .438E-03     .297E-03                                     
RMM:   5     -.248882641091E+02    -.15679E-03    -.23062E-06  4365    .392E-03     .487E-04                                     
RMM:   6     -.248882950406E+02    -.30931E-04    -.11501E-07  2435    .242E-03     .345E-04                                     
RMM:   7     -.248883088008E+02    -.13760E-04    -.33923E-08  2287    .236E-03                                                  
  738 T=  3061. E= -.19744939E+02 F= -.24888309E+02 E0= -.24807692E+02  EK=  .51434E+01 SP=  .00E+00 SK=  .00E+00 mag=      1.000
       N       E                     dE             d eps       ncg     rms          rms(c)                                      
DAV:   1     -.248798983202E+02     .83967E-02    -.17848E+00 11384    .650E+00     .825E-03                                     
RMM:   2     -.248827160106E+02    -.28177E-02    -.88282E-03 10735    .626E-02     .592E-03                                     
RMM:   3     -.248855985259E+02    -.28825E-02    -.14667E-04  6043    .961E-03     .288E-03                                     
RMM:   4     -.248873761353E+02    -.17776E-02    -.13264E-05  6094    .543E-03     .401E-03                                     
RMM:   5     -.248881143368E+02    -.73820E-03    -.22707E-06  4321    .368E-03     .568E-04                                     
RMM:   6     -.248881323280E+02    -.17991E-04    -.72881E-07  3413    .321E-03                                                  
  739 T=  3061. E= -.19744934E+02 F= -.24888132E+02 E0= -.24807515E+02  EK=  .51432E+01 SP=  .00E+00 SK=  .00E+00 mag=      1.000
       N       E                     dE             d eps       ncg     rms          rms(c)                                      
DAV:   1     -.248787619959E+02     .93523E-02    -.13626E+00 11600    .561E+00     .822E-03                                     
RMM:   2     -.248825461161E+02    -.37841E-02    -.18555E-02 10345    .750E-02     .593E-03                                     
RMM:   3     -.248853046064E+02    -.27585E-02    -.72315E-04  6035    .132E-02     .334E-03                                     
RMM:   4     -.248865664826E+02    -.12619E-02    -.47311E-05  5183    .607E-03     .369E-03                                     
RMM:   5     -.248877005553E+02    -.11341E-02    -.53916E-06  4576    .407E-03     .175E-03                                     
RMM:   6     -.248879605764E+02    -.26002E-03    -.24038E-06  4188    .382E-03     .451E-04                                     
RMM:   7     -.248879313404E+02     .29236E-04    -.26914E-07  2507    .280E-03                                                  
  740 T=  3061. E= -.19744903E+02 F= -.24887931E+02 E0= -.24807315E+02  EK=  .51430E+01 SP=  .00E+00 SK=  .00E+00 mag=      1.000
       N       E                     dE             d eps       ncg     rms          rms(c)                                      
DAV:   1     -.248618959270E+02     .26065E-01    -.17281E+00 11400    .780E+00     .106E-02                                     
RMM:   2     -.248830727979E+02    -.21177E-01    -.18765E-01 10809    .188E-01     .695E-03                                     
RMM:   3     -.248832635218E+02    -.19072E-03    -.43977E-03  9532    .320E-02     .839E-03                                     
RMM:   4     -.248842361106E+02    -.97259E-03    -.28395E-04  5933    .982E-03     .441E-03                                     
RMM:   5     -.248861702005E+02    -.19341E-02    -.19485E-05  4924    .468E-03     .220E-03                                     
RMM:   6     -.248871491609E+02    -.97896E-03    -.22634E-06  4367    .357E-03     .150E-03                                     
RMM:   7     -.248877067987E+02    -.55764E-03    -.93996E-07  3748    .303E-03     .494E-04                                     
RMM:   8     -.248877836411E+02    -.76842E-04    -.43993E-07  2903    .270E-03     .267E-04                                     
RMM:   9     -.248877949543E+02    -.11313E-04    -.20457E-07  2706    .256E-03                                                  
  741 T=  3061. E= -.19744938E+02 F= -.24887795E+02 E0= -.24807179E+02  EK=  .51429E+01 SP=  .00E+00 SK=  .00E+00 mag=      1.000
       N       E                     dE             d eps       ncg     rms          rms(c)                                      
DAV:   1     -.248733545159E+02     .14429E-01    -.27544E+00 11960    .656E+00     .865E-03                                     
RMM:   2     -.248822737220E+02    -.89192E-02    -.69527E-02 11307    .136E-01     .635E-03                                     
RMM:   3     -.248831728714E+02    -.89915E-03    -.12885E-03  8136    .195E-02     .570E-03                                     
RMM:   4     -.248843712023E+02    -.11983E-02    -.14059E-04  4921    .797E-03     .456E-03                                     
RMM:   5     -.248854021538E+02    -.10310E-02    -.11712E-05  4321    .410E-03     .275E-03                                     
RMM:   6     -.248874448823E+02    -.20427E-02    -.22092E-06  4321    .377E-03     .494E-04                                     
RMM:   7     -.248876224871E+02    -.17760E-03    -.15004E-06  3940    .362E-03     .289E-04                                     
RMM:   8     -.248876105755E+02     .11912E-04    -.17725E-07  2351    .276E-03                                                  
  742 T=  3060. E= -.19744925E+02 F= -.24887611E+02 E0= -.24806995E+02  EK=  .51427E+01 SP=  .00E+00 SK=  .00E+00 mag=      1.000
       N       E                     dE             d eps       ncg     rms          rms(c)                                      
DAV:   1     -.248798000798E+02     .78224E-02    -.15391E+00 11080    .702E+00     .797E-03                                     
RMM:   2     -.248820438702E+02    -.22438E-02    -.31582E-03 10904    .342E-02     .589E-03                                     
RMM:   3     -.248861022457E+02    -.40584E-02    -.71765E-05  7055    .717E-03     .401E-03                                     
RMM:   4     -.248871241435E+02    -.10219E-02    -.83297E-06  4740    .423E-03     .163E-03                                     
RMM:   5     -.248873695861E+02    -.24544E-03    -.31950E-06  4498    .412E-03     .851E-04                                     
RMM:   6     -.248873714040E+02    -.18179E-05    -.13954E-07  2085    .249E-03                                                  
  743 T=  3060. E= -.19744857E+02 F= -.24887371E+02 E0= -.24806756E+02  EK=  .51425E+01 SP=  .00E+00 SK=  .00E+00 mag=      1.000
       N       E                     dE             d eps       ncg     rms          rms(c)                                      
DAV:   1     -.248799929187E+02     .73767E-02    -.16415E+00 11280    .659E+00     .796E-03                                     
RMM:   2     -.248819554027E+02    -.19625E-02    -.56941E-04 10694    .260E-02     .585E-03                                     
RMM:   3     -.248866025125E+02    -.46471E-02    -.84808E-06  6436    .548E-03     .213E-03                                     
RMM:   4     -.248871246295E+02    -.52212E-03    -.14586E-06  4331    .371E-03     .231E-03                                     
RMM:   5     -.248871704631E+02    -.45834E-04    -.20526E-06  4224    .373E-03     .502E-04                                     
RMM:   6     -.248871776438E+02    -.71808E-05    -.75735E-08  2098    .235E-03                                                  
  744 T=  3060. E= -.19744834E+02 F= -.24887178E+02 E0= -.24806563E+02  EK=  .51423E+01 SP=  .00E+00 SK=  .00E+00 mag=      1.000
       N       E                     dE             d eps       ncg     rms          rms(c)                                      
DAV:   1     -.248735112957E+02     .13659E-01    -.18332E+00 11192    .664E+00     .921E-03                                     
RMM:   2     -.248815527685E+02    -.80415E-02    -.60928E-02 10659    .151E-01     .600E-03                                     
RMM:   3     -.248829859920E+02    -.14332E-02    -.12268E-03  7758    .217E-02     .643E-03                                     
RMM:   4     -.248835954939E+02    -.60950E-03    -.10062E-04  4263    .801E-03     .393E-03                                     
RMM:   5     -.248863290062E+02    -.27335E-02    -.11783E-05  5197    .451E-03     .177E-03                                     
RMM:   6     -.248869105665E+02    -.58156E-03    -.99327E-07  3382    .321E-03     .630E-04                                     
RMM:   7     -.248870951193E+02    -.18455E-03    -.84380E-07  3463    .326E-03     .345E-04                                     
RMM:   8     -.248870994406E+02    -.43213E-05    -.26119E-07  2570    .285E-03                                                  
  745 T=  3060. E= -.19744926E+02 F= -.24887099E+02 E0= -.24806485E+02  EK=  .51422E+01 SP=  .00E+00 SK=  .00E+00 mag=      1.000
